31
Lattice="7.1796469417716 -1.5263944304847455e-19 2.3383906561260498e-20 -3.450219022336454e-17 7.1796469417716064 1.4618116429384963e-15 -7.646975426808868e-17 -6.99325792943354e-17 7.179646941771601" Properties=species:S:1:pos:R:3:forces:R:3:energies:R:1 energy=1.0096880400322128 free_energy=1.0096880400322128 pbc="T T T"
Cu       0.00210819       0.00210819       0.00000000       0.00005741       0.00005741       0.00000000      -0.00335404
Cu       0.01089809       1.79491174       1.80580982      -0.00000153       0.00000000      -0.00000153       0.08275176
Cu       1.79491174       0.01089809       1.80580982       0.00000000      -0.00000153      -0.00000153       0.08275176
Cu       1.79491174       1.79491174      -0.00000000      -0.00000000      -0.00000000       0.00000000       0.02936927
Cu       0.01089809       0.01089809       3.58982347      -0.00000153      -0.00000153       0.00000000       0.08275176
Cu       0.01089809       1.79491174       5.37383712      -0.00000153      -0.00000000       0.00000153       0.08275176
Cu       1.79491174       0.01089809       5.37383712      -0.00000000      -0.00000153       0.00000153       0.08275176
Cu       3.57892539       3.57892539       3.58982347       0.00000153       0.00000153       0.00000000       0.08275176
Cu       0.00210819       3.58771528       0.00000000       0.00005741      -0.00005741      -0.00000000      -0.00335404
Cu       0.00210819       5.38473521       1.79701992       0.00005741       0.00000000       0.00005741      -0.00335404
Cu       1.79491174       3.57892539       1.80580982      -0.00000000       0.00000153      -0.00000153       0.08275176
Cu       1.79491174       5.38473521       0.00000000      -0.00000000      -0.00000000      -0.00000000      -0.00789819
Cu       0.01089809       3.57892539       3.58982347      -0.00000153       0.00000153       0.00000000       0.08275176
Cu       0.00210819       5.38473521       5.38262702       0.00005741      -0.00000000      -0.00005741      -0.00335404
Cu       1.79491174       3.57892539       5.37383712      -0.00000000       0.00000153       0.00000153       0.08275176
Cu       1.79491174       5.38473521       3.58982347      -0.00000000       0.00000000       0.00000000       0.02936927
Cu       3.58771528       0.00210819       0.00000000      -0.00005741       0.00005741       0.00000000      -0.00335404
Cu       3.57892539       1.79491174       1.80580982       0.00000153       0.00000000      -0.00000153       0.08275176
Cu       5.38473521       0.00210819       1.79701992       0.00000000       0.00005741       0.00005741      -0.00335404
Cu       5.38473521       1.79491174      -0.00000000       0.00000000      -0.00000000       0.00000000      -0.00789819
Cu       3.57892539       0.01089809       3.58982347       0.00000153      -0.00000153      -0.00000000       0.08275176
Cu       3.57892539       1.79491174       5.37383712       0.00000153       0.00000000       0.00000153       0.08275176
Cu       5.38473521       0.00210819       5.38262702       0.00000000       0.00005741      -0.00005741      -0.00335404
Cu       5.38473521       1.79491174       3.58982347       0.00000000       0.00000000       0.00000000       0.02936927
Cu       3.58771528       3.58771528       0.00000000      -0.00005741      -0.00005741      -0.00000000      -0.00335404
Cu       3.58771528       5.38473521       1.79701992      -0.00005741      -0.00000000       0.00005741      -0.00335404
Cu       5.38473521       3.58771528       1.79701992       0.00000000      -0.00005741       0.00005741      -0.00335404
Cu       5.38473521       5.38473521       0.00000000      -0.00000000      -0.00000000      -0.00000000      -0.00749784
Cu       3.58771528       5.38473521       5.38262702      -0.00005741       0.00000000      -0.00005741      -0.00335404
Cu       5.38473521       3.58771528       5.38262702       0.00000000      -0.00005741      -0.00005741      -0.00335404
Cu       5.38473521       5.38473521       3.58982347      -0.00000000       0.00000000       0.00000000      -0.00789819
