31
Lattice="7.22 0.0 0.0 0.0 7.22 0.0 0.0 0.0 7.22" Properties=species:S:1:pos:R:3:forces:R:3:energies:R:1 energy=1.0689818307952805 free_energy=1.0689818307952805 pbc="T T T"
Cu       0.00168635       0.00168635       0.00000000       0.00002917       0.00002917      -0.00000000      -0.00146130
Cu       0.00821125       1.80500000       1.81321125       0.00000193       0.00000000       0.00000193       0.08507801
Cu       1.80500000       0.00821125       1.81321125       0.00000000       0.00000193       0.00000193       0.08507801
Cu       1.80500000       1.80500000       0.00000000       0.00000000       0.00000000      -0.00000000       0.02903759
Cu       0.00821125       0.00821125       3.61000000       0.00000193       0.00000193      -0.00000000       0.08507801
Cu       0.00821125       1.80500000       5.40678875       0.00000193      -0.00000000      -0.00000193       0.08507801
Cu       1.80500000       0.00821125       5.40678875       0.00000000       0.00000193      -0.00000193       0.08507801
Cu       3.60178875       3.60178875       3.61000000      -0.00000193      -0.00000193       0.00000000       0.08507801
Cu       0.00168635       3.60831365       0.00000000       0.00002917      -0.00002917      -0.00000000      -0.00146130
Cu       0.00168635       5.41500000       1.80668635       0.00002917       0.00000000       0.00002917      -0.00146130
Cu       1.80500000       3.60178875       1.81321125       0.00000000      -0.00000193       0.00000193       0.08507801
Cu       1.80500000       5.41500000       0.00000000       0.00000000      -0.00000000      -0.00000000      -0.00528854
Cu       0.00821125       3.60178875       3.61000000       0.00000193      -0.00000193       0.00000000       0.08507801
Cu       0.00168635       5.41500000       5.41331365       0.00002917      -0.00000000      -0.00002917      -0.00146130
Cu       1.80500000       3.60178875       5.40678875      -0.00000000      -0.00000193      -0.00000193       0.08507801
Cu       1.80500000       5.41500000       3.61000000       0.00000000       0.00000000      -0.00000000       0.02903759
Cu       3.60831365       0.00168635       0.00000000      -0.00002917       0.00002917      -0.00000000      -0.00146130
Cu       3.60178875       1.80500000       1.81321125      -0.00000193      -0.00000000       0.00000193       0.08507801
Cu       5.41500000       0.00168635       1.80668635      -0.00000000       0.00002917       0.00002917      -0.00146130
Cu       5.41500000       1.80500000       0.00000000      -0.00000000       0.00000000      -0.00000000      -0.00528854
Cu       3.60178875       0.00821125       3.61000000      -0.00000193       0.00000193      -0.00000000       0.08507801
Cu       3.60178875       1.80500000       5.40678875      -0.00000193       0.00000000      -0.00000193       0.08507801
Cu       5.41500000       0.00168635       5.41331365      -0.00000000       0.00002917      -0.00002917      -0.00146130
Cu       5.41500000       1.80500000       3.61000000      -0.00000000       0.00000000      -0.00000000       0.02903759
Cu       3.60831365       3.60831365      -0.00000000      -0.00002917      -0.00002917      -0.00000000      -0.00146130
Cu       3.60831365       5.41500000       1.80668635      -0.00002917      -0.00000000       0.00002917      -0.00146130
Cu       5.41500000       3.60831365       1.80668635      -0.00000000      -0.00002917       0.00002917      -0.00146130
Cu       5.41500000       5.41500000       0.00000000      -0.00000000       0.00000000      -0.00000000      -0.00566587
Cu       3.60831365       5.41500000       5.41331365      -0.00002917      -0.00000000      -0.00002917      -0.00146130
Cu       5.41500000       3.60831365       5.41331365      -0.00000000      -0.00002917      -0.00002917      -0.00146130
Cu       5.41500000       5.41500000       3.61000000      -0.00000000      -0.00000000      -0.00000000      -0.00528854
