 +-------------------------------------------------+
 |                                                 |
 |      CCC   AA    SSS  TTTTT  EEEEE  PPPP        |
 |     C     A  A  S       T    E      P   P       |
 |     C     AAAA   SS     T    EEE    PPPP        |
 |     C     A  A     S    T    E      P           |
 |      CCC  A  A  SSS     T    EEEEE  P           |
 |                                                 |
 +-------------------------------------------------+
 |                                                 |
 | Welcome to Academic Release CASTEP version 21.1 |          
 | Ab Initio Total Energy Program                  |
 |                                                 |
 | Authors:                                        |
 | M. Segall, M. Probert, C. Pickard, P. Hasnip,   |
 | S. Clark, K. Refson, J. R. Yates, M. Payne      |
 |                                                 |
 | Contributors:                                   |
 | P. Lindan, P. Haynes, J. White, V. Milman,      |
 | N. Govind, M. Gibson, P. Tulip, V. Cocula,      |
 | B. Montanari, D. Quigley, M. Glover,            |
 | L. Bernasconi, A. Perlov, M. Plummer,           |
 | E. McNellis, J. Meyer, J. Gale, D. Jochym       |
 | J. Aarons, B. Walker, R. Gillen, D. Jones       |
 | T. Green, I. J. Bush, C. J. Armstrong,          |
 | E. J. Higgins, E. L. Brown, M. S. McFly,        |
 | J. Wilkins, B-C. Shih, P. J. P. Byrne,          |
 | R. J. Maurer, J. C. Womack, J. Dziedzic,        |
 | A. Bartok-Partay, L. LeBlanc                    |
 |                                                 |
 | Copyright (c) 2000 - 2020                       |
 |                                                 |
 |     Distributed under license from Cambridge    |
 |     Enterprise for academic use only.           |
 |                                                 |
 | Please cite                                     |
 |                                                 |
 |     "First principles methods using CASTEP"     |
 |                                                 |
 |         Zeitschrift fuer Kristallographie       |
 |           220(5-6) pp. 567-570 (2005)           |
 |                                                 |
 | S. J. Clark, M. D. Segall, C. J. Pickard,       |
 | P. J. Hasnip, M. J. Probert, K. Refson,         |
 | M. C. Payne                                     |
 |                                                 |
 |       in all publications arising from          |
 |              your use of CASTEP                 |
 |                                                 |
 +-------------------------------------------------+
 |                                                 |
 |              http://www.castep.org              |
 |                                                 |
 +-------------------------------------------------+
 
 
 
 Compiled for linux_x86_64_ifort on Thu, 05 Aug 2021 16:13:05 +0100
 from code version 
 f12f38a+  new-neb-implementation  Thu Aug 5 15:34:27 2021 +0100
 Compiler: Intel Fortran 18.0.3.222; Optimisation: fast
 MATHLIBS: Intel MKL(2018.0.3) (LAPACK version 3.7.0)
 FFT Lib : default
 Fundamental constants values: CODATA 2014
 
 Run started: Tue, 10 Aug 2021 12:48:46 +0100
 
 Atomic calculation performed for Cu: 1s2 2s2 2p6 3s2 3p6 3d10 4s1
 
 Converged in 145 iterations to an ae energy of -45030.712 eV
 
   ============================================================                
   | Pseudopotential Report - Date of generation 10-08-2021   |                
   ------------------------------------------------------------                
   | Element: Cu Ionic charge: 11.00 Level of theory: PBE     |                
   | Atomic Solver: Koelling-Harmon                           |                
   |                                                          |                
   |               Reference Electronic Structure             |                
   |         Orbital         Occupation         Energy        |                
   |            3d             10.000           -0.185        |                
   |            4s              1.000           -0.169        |                
   |                                                          |                
   |                 Pseudopotential Definition               |                
   |        Beta     l      e      Rc     scheme   norm       |                
   |          1      0   -0.169   1.996     qc      0         |                
   |          2      0    0.250   1.996     qc      0         |                
   |          3      1    0.000   1.996     qc      0         |                
   |          4      1    0.250   1.996     qc      0         |                
   |          5      2   -0.185   1.996     qc      0         |                
   |          6      2    0.250   1.996     qc      0         |                
   |         loc     3    0.000   2.206     pn      0         |                
   |                                                          |                
   | Augmentation charge Rinner = 0.999                       |                
   | Partial core correction Rc = 0.999                       |                
   ------------------------------------------------------------                
   | "3|2.2|2.0|1.0|10|12|13|40:41:32(qc=6)"                  |                
   ------------------------------------------------------------                
   |      Author: Chris J. Pickard, Cambridge University      |                
   ============================================================                
 
 Pseudo atomic calculation performed for Cu 3d10 4s1
 
 Converged in 49 iterations to a total energy of -1676.8615 eV
 Calculation parallelised over 8 processes.
 Data is distributed by k-point(8-way)

 ************************************ Title ************************************
 

 ***************************** General Parameters ******************************
  
 output verbosity                               : normal  (1)
 write checkpoint data to                       : CuBulk.check
 type of calculation                            : geometry optimization
 stress calculation                             : on
 density difference calculation                 : off
 electron localisation func (ELF) calculation   : off
 Hirshfeld analysis                             : off
 polarisation (Berry phase) analysis            : off
 molecular orbital projected DOS                : off
 deltaSCF calculation                           : off
 unlimited duration calculation
 timing information                             : on
 memory usage estimate                          : on
 write extra output files                       : on
 write final potential to formatted file        : off
 write final density to formatted file          : off
 write structure in CELL formatted file         : on
 write BibTeX reference list                    : on
 write OTFG pseudopotential files               : on
 write electrostatic potential file             : on
 write bands file                               : on
 checkpoint writing                             : both castep_bin and check files
  
 output         length unit                     : A
 output           mass unit                     : amu
 output           time unit                     : ps
 output         charge unit                     : e
 output           spin unit                     : hbar/2
 output         energy unit                     : eV
 output          force unit                     : eV/A
 output       velocity unit                     : A/ps
 output       pressure unit                     : GPa
 output     inv_length unit                     : 1/A
 output      frequency unit                     : cm-1
 output force constant unit                     : eV/A**2
 output         volume unit                     : A**3
 output   IR intensity unit                     : (D/A)**2/amu
 output         dipole unit                     : D
 output         efield unit                     : eV/A/e
 output        entropy unit                     : J/mol/K
 output    efield chi2 unit                     : pm/V
  
 wavefunctions paging                           : none
 random number generator seed                   : randomised (124847020)
 data distribution                              : optimal for this architecture
 optimization strategy                          : balance speed and memory

 *********************** Exchange-Correlation Parameters ***********************
  
 using functional                               : Perdew Burke Ernzerhof
 relativistic treatment                         : Koelling-Harmon
 DFT+D: Semi-empirical dispersion correction    : off

 ************************* Pseudopotential Parameters **************************
  
 pseudopotential representation                 : reciprocal space
 <beta|phi> representation                      : reciprocal space
 spin-orbit coupling                            : off

 **************************** Basis Set Parameters *****************************
  
 plane wave basis set cut-off                   :   500.0000   eV
 size of standard grid                          :     1.7500
 size of   fine   gmax                          :    20.0476   1/A
 finite basis set correction                    : automatic
 number of sample energies                      :          3
           sample  spacing                      :     5.0000   eV

 **************************** Electronic Parameters ****************************
  
 number of  electrons                           :  352.0    
 net charge of system                           :  0.000    
 treating system as non-spin-polarized
 number of bands                                :        211

 ********************* Electronic Minimization Parameters **********************
  
 Method: Treating system as metallic with density mixing treatment of electrons,
         and number of  SD  steps               :          1
         and number of  CG  steps               :          4
  
 total energy / atom convergence tol.           : 0.1000E-04   eV
 eigen-energy convergence tolerance             : 0.1000E-05   eV
 max force / atom convergence tol.              : ignored
 convergence tolerance window                   :          3   cycles
 max. number of SCF cycles                      :        100
 number of fixed-spin iterations                :         10
 smearing scheme                                : Gaussian
 smearing width                                 : 0.2000       eV
 Fermi energy convergence tolerance             : 0.2721E-13   eV
 periodic dipole correction                     : NONE

 ************************** Density Mixing Parameters **************************
  
 density-mixing scheme                          : Broyden
 max. length of mixing history                  :         20
 charge density mixing amplitude                : 0.8000    
 cut-off energy for mixing                      :  500.0       eV

 *********************** Population Analysis Parameters ************************
  
 Population analysis with cutoff                :  3.000       A
 Population analysis output                     : summary and pdos components

 ********************** Geometry Optimization Parameters ***********************
  
 optimization method                            : LBFGS
 max. no. of LBFGS updates                      : unbounded
 variable cell method                           : fixed basis quality
 max. number of steps                           :         30
 estimated bulk modulus                         :  500.0       GPa
 estimated <frequency>                          :  1668.       cm-1
 geom line minimiser                            : on
 with line minimiser tolerance                  :     0.4000
 total energy convergence tolerance             : 0.2000E-04   eV/atom
        max ionic |force| tolerance             : 0.5000E-01   eV/A
 max ionic |displacement| tolerance             : 0.1000E-02   A
   max |stress component| tolerance             : 0.1000       GPa
 convergence tolerance window                   :          2   steps
 backup results every                           :          5   steps
 write geom trajectory file                     : on

 *******************************************************************************
  
 
                           -------------------------------
                                      Unit Cell
                           -------------------------------
        Real Lattice(A)                      Reciprocal Lattice(1/A)
     7.2300000     0.0000000     0.0000000        0.869043611   0.000000000   0.000000000
     0.0000000     7.2300000     0.0000000        0.000000000   0.869043611   0.000000000
     0.0000000     0.0000000     7.2300000        0.000000000   0.000000000   0.869043611
 
                       Lattice parameters(A)       Cell Angles
                    a =      7.230000          alpha =   90.000000
                    b =      7.230000          beta  =   90.000000
                    c =      7.230000          gamma =   90.000000
 
                       Current cell volume =           377.933067       A**3
                                   density =             5.380508   AMU/A**3
                                           =             8.934544     g/cm^3
 
                           -------------------------------
                                     Cell Contents
                           -------------------------------
                         Total number of ions in cell =   32
                      Total number of species in cell =    1
                        Max number of any one species =   32
 
            xxxxxxxxxxxxxxxxxxxxxxxxxxxxxxxxxxxxxxxxxxxxxxxxxxxxxxxxxxxx
            x  Element    Atom        Fractional coordinates of atoms  x
            x            Number           u          v          w      x
            x----------------------------------------------------------x
            x  Cu           1         1.000000   0.000000   0.000000   x 
            x  Cu           2         1.000000   0.250000   0.250000   x 
            x  Cu           3         0.250000   0.000000   0.250000   x 
            x  Cu           4         0.250000   0.250000   0.000000   x 
            x  Cu           5         0.000000   0.000000   0.500000   x 
            x  Cu           6         0.000000   0.250000   0.750000   x 
            x  Cu           7         0.250000   0.000000   0.750000   x 
            x  Cu           8         0.250000   0.250000   0.500000   x 
            x  Cu           9         1.000000   0.500000   0.000000   x 
            x  Cu          10         0.000000   0.750000   0.250000   x 
            x  Cu          11         0.250000   0.500000   0.250000   x 
            x  Cu          12         0.250000   0.750000   0.000000   x 
            x  Cu          13         0.000000   0.500000   0.500000   x 
            x  Cu          14         0.000000   0.750000   0.750000   x 
            x  Cu          15         0.250000   0.500000   0.750000   x 
            x  Cu          16         0.250000   0.750000   0.500000   x 
            x  Cu          17         0.500000   0.000000   0.000000   x 
            x  Cu          18         0.500000   0.250000   0.250000   x 
            x  Cu          19         0.750000   0.000000   0.250000   x 
            x  Cu          20         0.750000   0.250000   0.000000   x 
            x  Cu          21         0.500000   0.000000   0.500000   x 
            x  Cu          22         0.500000   0.250000   0.750000   x 
            x  Cu          23         0.750000   0.000000   0.750000   x 
            x  Cu          24         0.750000   0.250000   0.500000   x 
            x  Cu          25         0.500000   0.500000   0.000000   x 
            x  Cu          26         0.500000   0.750000   0.250000   x 
            x  Cu          27         0.750000   0.500000   0.250000   x 
            x  Cu          28         0.750000   0.750000   0.000000   x 
            x  Cu          29         0.500000   0.500000   0.500000   x 
            x  Cu          30         0.500000   0.750000   0.750000   x 
            x  Cu          31         0.750000   0.500000   0.750000   x 
            x  Cu          32         0.750000   0.750000   0.500000   x 
            xxxxxxxxxxxxxxxxxxxxxxxxxxxxxxxxxxxxxxxxxxxxxxxxxxxxxxxxxxxx
 
 
                         No user defined ionic velocities
 
                           -------------------------------
                                   Details of Species
                           -------------------------------
 
                               Mass of species in AMU
                                    Cu   63.5460000
 
                          Electric Quadrupole Moment (Barn)
                                    Cu   -0.2200000 Isotope 63
 
                          Files used for pseudopotentials:
                                    Cu 3|2.2|2.0|1.0|10|12|13|40:41:32(qc=6)
 
                           -------------------------------
                              k-Points For BZ Sampling
                           -------------------------------
                       MP grid size for SCF calculation is  4  4  4
                            with an offset of   0.000  0.000  0.000
                       Number of kpoints used =            32
 
                           -------------------------------
                               Symmetry and Constraints
                           -------------------------------
 
                      Cell is a supercell containing 32 primitive cells
                      Maximum deviation from symmetry =  0.00000         ANG
 
                      Number of symmetry operations   =           1
                      Number of ionic constraints     =           3
                      Point group of crystal =     1: C1, 1, 1
                      Space group of crystal =   225: Fm-3m, -F 4 2 3
 
             Set iprint > 1 for details on symmetry rotations/translations
 
                         Centre of mass is constrained
             Set iprint > 1 for details of linear ionic constraints
 
                         Number of cell constraints= 5
                         Cell constraints are:  1 1 1 0 0 0
 
                         External pressure/stress (GPa)
                          0.00000   0.00000   0.00000
                                    0.00000   0.00000
                                              0.00000
  
+---------------- MEMORY AND SCRATCH DISK ESTIMATES PER PROCESS --------------+
|                                                     Memory          Disk    |
| Baseline code, static data and system overhead      464.0 MB         0.0 MB |
| BLAS internal memory storage                          0.0 MB         0.0 MB |
| Model and support data                              334.8 MB       294.8 MB |
| Electronic energy minimisation requirements         390.7 MB         0.0 MB |
| Force calculation requirements                       16.0 MB         0.0 MB |
| Stress calculation requirements                      17.7 MB         0.0 MB |
|                                               ----------------------------- |
| Approx. total storage required per process         1189.4 MB       294.8 MB |
|                                                                             |
| Requirements will fluctuate during execution and may exceed these estimates |
+-----------------------------------------------------------------------------+
Calculating finite basis set correction with  3 cut-off energies.
Calculating total energy with cut-off of  490.000 eV.
Calculating approximate eigenstates for fixed initial Hamiltonian
Cut-off for approx. calculation is   89.988 eV
Improving approx. states at cut-off of  272.114 eV
Resetting cut-off to  489.706 eV
------------------------------------------------------------------------ <-- SCF
SCF loop      Energy           Fermi           Energy gain       Timer   <-- SCF
                               energy          per atom          (sec)   <-- SCF
------------------------------------------------------------------------ <-- SCF
Initial  -5.47262992E+004  0.00000000E+000                        83.31  <-- SCF
      1  -5.37880143E+004  4.67055539E+000  -2.93214049E+001     143.06  <-- SCF
      2  -5.37895859E+004  4.71244875E+000   4.91134277E-002     203.71  <-- SCF
      3  -5.37899165E+004  4.55846944E+000   1.03317410E-002     245.71  <-- SCF
      4  -5.37903940E+004  4.63432299E+000   1.49215150E-002     290.50  <-- SCF
      5  -5.37898372E+004  4.57814714E+000  -1.73997912E-002     336.25  <-- SCF
      6  -5.37899068E+004  4.51640667E+000   2.17529472E-003     382.10  <-- SCF
      7  -5.37898302E+004  4.54301088E+000  -2.39607449E-003     429.97  <-- SCF
      8  -5.37898426E+004  4.56616661E+000   3.88402342E-004     484.46  <-- SCF
      9  -5.37898289E+004  4.54786583E+000  -4.29407693E-004     526.80  <-- SCF
     10  -5.37898302E+004  4.54792209E+000   4.15954827E-005     576.57  <-- SCF
     11  -5.37898289E+004  4.54949687E+000  -3.95892106E-005     618.76  <-- SCF
     12  -5.37898288E+004  4.54903602E+000  -2.84731556E-006     646.85  <-- SCF
     13  -5.37898289E+004  4.54903364E+000   1.89096077E-006     678.50  <-- SCF
------------------------------------------------------------------------ <-- SCF
 
Final energy, E             =  -53789.65781138     eV
Final free energy (E-TS)    =  -53789.82888417     eV
(energies not corrected for finite basis set)
 
NB est. 0K energy (E-0.5TS)      =  -53789.74334778     eV
 
Calculating total energy with cut-off of  495.000 eV.
------------------------------------------------------------------------ <-- SCF
SCF loop      Energy           Fermi           Energy gain       Timer   <-- SCF
                               energy          per atom          (sec)   <-- SCF
------------------------------------------------------------------------ <-- SCF
Initial  -5.37896573E+004  0.00000000E+000                       687.40  <-- SCF
      1  -5.37898340E+004  4.54928805E+000   5.52172684E-003     743.53  <-- SCF
      2  -5.37898340E+004  4.54928800E+000   2.66220813E-007     775.58  <-- SCF
      3  -5.37898626E+004  4.55001640E+000   8.91934021E-004     825.39  <-- SCF
      4  -5.37898304E+004  4.54878812E+000  -1.00416212E-003     868.31  <-- SCF
      5  -5.37898319E+004  4.54968054E+000   4.57409971E-005     913.00  <-- SCF
      6  -5.37898312E+004  4.54926599E+000  -2.20020038E-005     942.93  <-- SCF
      7  -5.37898312E+004  4.54873165E+000   8.25514296E-007     969.96  <-- SCF
      8  -5.37898312E+004  4.54905121E+000  -6.91528407E-008    1000.03  <-- SCF
------------------------------------------------------------------------ <-- SCF
 
Final energy, E             =  -53789.66015826     eV
Final free energy (E-TS)    =  -53789.83123017     eV
(energies not corrected for finite basis set)
 
NB est. 0K energy (E-0.5TS)      =  -53789.74569421     eV
 
Calculating total energy with cut-off of  500.000 eV.
------------------------------------------------------------------------ <-- SCF
SCF loop      Energy           Fermi           Energy gain       Timer   <-- SCF
                               energy          per atom          (sec)   <-- SCF
------------------------------------------------------------------------ <-- SCF
Initial  -5.37896602E+004  0.00000000E+000                      1008.54  <-- SCF
      1  -5.37898328E+004  4.54925004E+000   5.39633525E-003    1061.60  <-- SCF
      2  -5.37898328E+004  4.54925004E+000   8.24225434E-009    1091.78  <-- SCF
      3  -5.37898329E+004  4.54884974E+000   2.37844577E-006    1117.87  <-- SCF
      4  -5.37898328E+004  4.54902640E+000  -2.73336348E-006    1144.17  <-- SCF
------------------------------------------------------------------------ <-- SCF
 
Final energy, E             =  -53789.66175710     eV
Final free energy (E-TS)    =  -53789.83282662     eV
(energies not corrected for finite basis set)
 
NB est. 0K energy (E-0.5TS)      =  -53789.74729186     eV
 
 For future reference: finite basis dEtot/dlog(Ecut) =      -0.189593eV
 Total energy corrected for finite basis set =  -53789.832827 eV
 
+---------------- MEMORY AND SCRATCH DISK ESTIMATES PER PROCESS --------------+
|                                                     Memory          Disk    |
| Model and support data                              340.7 MB       294.8 MB |
| Electronic energy minimisation requirements         390.7 MB         0.0 MB |
| Geometry minimisation requirements                  524.0 MB         0.0 MB |
|                                               ----------------------------- |
| Approx. total storage required per process         1255.4 MB       294.8 MB |
|                                                                             |
| Requirements will fluctuate during execution and may exceed these estimates |
+-----------------------------------------------------------------------------+
 
 
 ************************************** Forces **************************************
 *                                                                                  *
 *                           Cartesian components (eV/A)                            *
 * -------------------------------------------------------------------------------- *
 *                         x                    y                    z              *
 *                                                                                  *
 * Cu              1     -0.00006             -0.00015             -0.00001         *
 * Cu              2     -0.00001              0.00003             -0.00001         *
 * Cu              3     -0.00001             -0.00016             -0.00002         *
 * Cu              4     -0.00001              0.00002             -0.00003         *
 * Cu              5     -0.00005             -0.00014             -0.00000         *
 * Cu              6     -0.00009              0.00005              0.00001         *
 * Cu              7      0.00003             -0.00015              0.00003         *
 * Cu              8     -0.00003              0.00003              0.00003         *
 * Cu              9     -0.00006              0.00013              0.00001         *
 * Cu             10     -0.00002             -0.00002             -0.00001         *
 * Cu             11     -0.00003              0.00015             -0.00002         *
 * Cu             12      0.00002             -0.00002              0.00003         *
 * Cu             13     -0.00005              0.00014             -0.00001         *
 * Cu             14     -0.00009             -0.00004              0.00001         *
 * Cu             15      0.00000              0.00016              0.00003         *
 * Cu             16     -0.00003             -0.00002             -0.00004         *
 * Cu             17      0.00007             -0.00014             -0.00001         *
 * Cu             18      0.00001             -0.00001             -0.00003         *
 * Cu             19      0.00002             -0.00015             -0.00003         *
 * Cu             20      0.00001              0.00001             -0.00006         *
 * Cu             21      0.00006             -0.00015              0.00002         *
 * Cu             22      0.00009              0.00001              0.00004         *
 * Cu             23     -0.00004             -0.00015              0.00004         *
 * Cu             24      0.00003              0.00002              0.00007         *
 * Cu             25      0.00006              0.00013             -0.00002         *
 * Cu             26      0.00002              0.00001             -0.00005         *
 * Cu             27      0.00004              0.00017             -0.00002         *
 * Cu             28     -0.00002             -0.00002             -0.00002         *
 * Cu             29      0.00006              0.00014              0.00003         *
 * Cu             30      0.00007             -0.00001              0.00003         *
 * Cu             31     -0.00000              0.00015              0.00005         *
 * Cu             32      0.00002             -0.00002              0.00001         *
 *                                                                                  *
 ************************************************************************************
 
 ***************** Stress Tensor *****************
 *                                               *
 *          Cartesian components (GPa)           *
 * --------------------------------------------- *
 *             x             y             z     *
 *                                               *
 *  x     -1.564328      0.000012      0.000002  *
 *  y      0.000012     -1.564350      0.000005  *
 *  z      0.000002      0.000005     -1.564346  *
 *                                               *
 *  Pressure:    1.5643                          *
 *                                               *
 *************************************************
 
 *********** Constrained Stress Tensor ***********
 *                                               *
 *          Cartesian components (GPa)           *
 * --------------------------------------------- *
 *             x             y             z     *
 *                                               *
 *  x     -1.564341      0.000000      0.000000  *
 *  y      0.000000     -1.564341      0.000000  *
 *  z      0.000000      0.000000     -1.564341  *
 *                                               *
 *  Pressure:    1.5643                          *
 *                                               *
 *************************************************
 LBFGS: finished iteration     0 with enthalpy= -5.37898328E+004 eV
  
 +-----------+-----------------+-----------------+------------+-----+ <-- LBFGS
 | Parameter |      value      |    tolerance    |    units   | OK? | <-- LBFGS
 +-----------+-----------------+-----------------+------------+-----+ <-- LBFGS
 |  dE/ion   |   0.000000E+000 |   2.000000E-005 |         eV | No  | <-- LBFGS
 |  |F|max   |   1.759530E-004 |   5.000000E-002 |       eV/A | Yes | <-- LBFGS
 |  |dR|max  |   0.000000E+000 |   1.000000E-003 |          A | No  | <-- LBFGS
 |   Smax    |   1.564341E+000 |   1.000000E-001 |        GPa | No  | <-- LBFGS
 +-----------+-----------------+-----------------+------------+-----+ <-- LBFGS
  

================================================================================
 Starting LBFGS iteration          1 ...
================================================================================
  
 +------------+-------------+-------------+-----------------+ <-- min LBFGS
 |    Step    |   lambda    |   F.delta'  |    enthalpy     | <-- min LBFGS
 +------------+-------------+-------------+-----------------+ <-- min LBFGS
 |  previous  |    0.000000 |    0.234880 |   -53789.832827 | <-- min LBFGS
 +------------+-------------+-------------+-----------------+ <-- min LBFGS
  

--------------------------------------------------------------------------------
 LBFGS: starting iteration         1 with trial guess (lambda=  1.000000)
--------------------------------------------------------------------------------
 
+---------------- MEMORY AND SCRATCH DISK ESTIMATES PER PROCESS --------------+
|                                                     Memory          Disk    |
| Model and support data                              341.0 MB       294.8 MB |
| Electronic energy minimisation requirements         391.4 MB         0.0 MB |
| Geometry minimisation requirements                  524.9 MB         0.0 MB |
|                                               ----------------------------- |
| Approx. total storage required per process         1257.3 MB       294.8 MB |
|                                                                             |
| Requirements will fluctuate during execution and may exceed these estimates |
+-----------------------------------------------------------------------------+
 
 
                           -------------------------------
                                      Unit Cell
                           -------------------------------
        Real Lattice(A)              Reciprocal Lattice(1/A)
     7.2375401    -0.0000000    -0.0000000        0.868138235   0.000000000   0.000000000
    -0.0000000     7.2375401    -0.0000000        0.000000000   0.868138235   0.000000000
    -0.0000000    -0.0000000     7.2375401        0.000000000   0.000000000   0.868138235
 
                       Lattice parameters(A)       Cell Angles
                    a =      7.237540          alpha =   90.000000
                    b =      7.237540          beta  =   90.000000
                    c =      7.237540          gamma =   90.000000
 
                Current cell volume =           379.116733 A**3
                            density =             5.363709 amu/A**3
                                    =             8.906649 g/cm^3
 
                           -------------------------------
                                     Cell Contents
                           -------------------------------
 
            xxxxxxxxxxxxxxxxxxxxxxxxxxxxxxxxxxxxxxxxxxxxxxxxxxxxxxxxxxxxxxxxx
            x  Element         Atom        Fractional coordinates of atoms  x
            x                 Number           u          v          w      x
            x---------------------------------------------------------------x
            x  Cu                1         1.000000  -0.000000  -0.000000   x
            x  Cu                2         1.000000   0.250000   0.250000   x
            x  Cu                3         0.250000  -0.000000   0.250000   x
            x  Cu                4         0.250000   0.250000  -0.000000   x
            x  Cu                5        -0.000000  -0.000000   0.500000   x
            x  Cu                6        -0.000000   0.250000   0.750000   x
            x  Cu                7         0.250000  -0.000000   0.750000   x
            x  Cu                8         0.250000   0.250000   0.500000   x
            x  Cu                9         1.000000   0.500000   0.000000   x
            x  Cu               10        -0.000000   0.750000   0.250000   x
            x  Cu               11         0.250000   0.500000   0.250000   x
            x  Cu               12         0.250000   0.750000   0.000000   x
            x  Cu               13        -0.000000   0.500000   0.500000   x
            x  Cu               14        -0.000000   0.750000   0.750000   x
            x  Cu               15         0.250000   0.500000   0.750000   x
            x  Cu               16         0.250000   0.750000   0.500000   x
            x  Cu               17         0.500000  -0.000000  -0.000000   x
            x  Cu               18         0.500000   0.250000   0.250000   x
            x  Cu               19         0.750000  -0.000000   0.250000   x
            x  Cu               20         0.750000   0.250000  -0.000000   x
            x  Cu               21         0.500000  -0.000000   0.500000   x
            x  Cu               22         0.500000   0.250000   0.750000   x
            x  Cu               23         0.750000  -0.000000   0.750000   x
            x  Cu               24         0.750000   0.250000   0.500000   x
            x  Cu               25         0.500000   0.500000  -0.000000   x
            x  Cu               26         0.500000   0.750000   0.250000   x
            x  Cu               27         0.750000   0.500000   0.250000   x
            x  Cu               28         0.750000   0.750000  -0.000000   x
            x  Cu               29         0.500000   0.500000   0.500000   x
            x  Cu               30         0.500000   0.750000   0.750000   x
            x  Cu               31         0.750000   0.500000   0.750000   x
            x  Cu               32         0.750000   0.750000   0.500000   x
            xxxxxxxxxxxxxxxxxxxxxxxxxxxxxxxxxxxxxxxxxxxxxxxxxxxxxxxxxxxxxxxxx
 
 
------------------------------------------------------------------------ <-- SCF
SCF loop      Energy           Fermi           Energy gain       Timer   <-- SCF
                               energy          per atom          (sec)   <-- SCF
------------------------------------------------------------------------ <-- SCF
Initial  -5.37896033E+004  0.00000000E+000                      1284.95  <-- SCF
      1  -5.37900301E+004  4.41861349E+000   1.33391074E-002    1340.26  <-- SCF
      2  -5.37900305E+004  4.41861052E+000   1.19486319E-005    1377.21  <-- SCF
      3  -5.37905253E+004  4.72957221E+000   1.54630548E-002    1417.43  <-- SCF
      4  -5.37898319E+004  4.51872869E+000  -2.16692553E-002    1461.21  <-- SCF
      5  -5.37898422E+004  4.51992707E+000   3.19530118E-004    1505.01  <-- SCF
      6  -5.37898420E+004  4.51974691E+000  -5.19964826E-006    1533.91  <-- SCF
      7  -5.37898420E+004  4.51935417E+000  -2.06822405E-007    1562.22  <-- SCF
------------------------------------------------------------------------ <-- SCF
 
Final energy, E             =  -53789.67015042     eV
Final free energy (E-TS)    =  -53789.84198436     eV
(energies not corrected for finite basis set)
 
NB est. 0K energy (E-0.5TS)      =  -53789.75606739     eV
 
 
 ************************************** Forces **************************************
 *                                                                                  *
 *                           Cartesian components (eV/A)                            *
 * -------------------------------------------------------------------------------- *
 *                         x                    y                    z              *
 *                                                                                  *
 * Cu              1      0.00009              0.00026              0.00001         *
 * Cu              2      0.00007             -0.00005              0.00004         *
 * Cu              3      0.00000              0.00029              0.00005         *
 * Cu              4      0.00003             -0.00005              0.00003         *
 * Cu              5      0.00008              0.00025             -0.00001         *
 * Cu              6      0.00009             -0.00007             -0.00004         *
 * Cu              7     -0.00002              0.00025             -0.00004         *
 * Cu              8      0.00005             -0.00005             -0.00003         *
 * Cu              9      0.00009             -0.00026              0.00002         *
 * Cu             10      0.00009              0.00006              0.00005         *
 * Cu             11      0.00004             -0.00030              0.00005         *
 * Cu             12     -0.00000              0.00004              0.00000         *
 * Cu             13      0.00008             -0.00026             -0.00002         *
 * Cu             14      0.00009              0.00007             -0.00005         *
 * Cu             15      0.00002             -0.00025             -0.00004         *
 * Cu             16      0.00002              0.00004             -0.00000         *
 * Cu             17     -0.00009              0.00028              0.00003         *
 * Cu             18     -0.00007             -0.00002              0.00005         *
 * Cu             19     -0.00001              0.00031              0.00006         *
 * Cu             20     -0.00001             -0.00004              0.00004         *
 * Cu             21     -0.00008              0.00028             -0.00003         *
 * Cu             22     -0.00008             -0.00003             -0.00006         *
 * Cu             23      0.00002              0.00026             -0.00006         *
 * Cu             24     -0.00004             -0.00004             -0.00004         *
 * Cu             25     -0.00009             -0.00028              0.00003         *
 * Cu             26     -0.00008              0.00002              0.00006         *
 * Cu             27     -0.00005             -0.00030              0.00006         *
 * Cu             28      0.00001              0.00004              0.00001         *
 * Cu             29     -0.00008             -0.00028             -0.00004         *
 * Cu             30     -0.00009              0.00004             -0.00007         *
 * Cu             31     -0.00003             -0.00026             -0.00006         *
 * Cu             32     -0.00001              0.00004             -0.00001         *
 *                                                                                  *
 ************************************************************************************
 
 ***************** Stress Tensor *****************
 *                                               *
 *          Cartesian components (GPa)           *
 * --------------------------------------------- *
 *             x             y             z     *
 *                                               *
 *  x     -1.018202     -0.000000     -0.000011  *
 *  y     -0.000000     -1.018287      0.000002  *
 *  z     -0.000011      0.000002     -1.018665  *
 *                                               *
 *  Pressure:    1.0184                          *
 *                                               *
 *************************************************
 
 *********** Constrained Stress Tensor ***********
 *                                               *
 *          Cartesian components (GPa)           *
 * --------------------------------------------- *
 *             x             y             z     *
 *                                               *
 *  x     -1.018385     -0.000000     -0.000000  *
 *  y     -0.000000     -1.018385     -0.000000  *
 *  z     -0.000000     -0.000000     -1.018385  *
 *                                               *
 *  Pressure:    1.0184                          *
 *                                               *
 *************************************************
  
 +------------+-------------+-------------+-----------------+ <-- min LBFGS
 |    Step    |   lambda    |   F.delta'  |    enthalpy     | <-- min LBFGS
 +------------+-------------+-------------+-----------------+ <-- min LBFGS
 |  previous  |    0.000000 |    0.234880 |   -53789.832827 | <-- min LBFGS
 | trial step |    1.000000 |    0.153226 |   -53789.841966 | <-- min LBFGS
 +------------+-------------+-------------+-----------------+ <-- min LBFGS
  
 LBFGS: finished iteration     1 with enthalpy= -5.37898420E+004 eV
  
 +-----------+-----------------+-----------------+------------+-----+ <-- LBFGS
 | Parameter |      value      |    tolerance    |    units   | OK? | <-- LBFGS
 +-----------+-----------------+-----------------+------------+-----+ <-- LBFGS
 |  dE/ion   |   2.855788E-004 |   2.000000E-005 |         eV | No  | <-- LBFGS
 |  |F|max   |   3.144270E-004 |   5.000000E-002 |       eV/A | Yes | <-- LBFGS
 |  |dR|max  |   2.709709E-007 |   1.000000E-003 |          A | Yes | <-- LBFGS
 |   Smax    |   1.018385E+000 |   1.000000E-001 |        GPa | No  | <-- LBFGS
 +-----------+-----------------+-----------------+------------+-----+ <-- LBFGS
  

================================================================================
 Starting LBFGS iteration          2 ...
================================================================================
  
 +------------+-------------+-------------+-----------------+ <-- min LBFGS
 |    Step    |   lambda    |   F.delta'  |    enthalpy     | <-- min LBFGS
 +------------+-------------+-------------+-----------------+ <-- min LBFGS
 |  previous  |    0.000000 |    0.153226 |   -53789.841966 | <-- min LBFGS
 +------------+-------------+-------------+-----------------+ <-- min LBFGS
  

--------------------------------------------------------------------------------
 LBFGS: starting iteration         2 with trial guess (lambda=  1.000000)
--------------------------------------------------------------------------------
 
+---------------- MEMORY AND SCRATCH DISK ESTIMATES PER PROCESS --------------+
|                                                     Memory          Disk    |
| Model and support data                              341.6 MB       294.8 MB |
| Electronic energy minimisation requirements         392.2 MB         0.0 MB |
| Geometry minimisation requirements                  526.1 MB         0.0 MB |
|                                               ----------------------------- |
| Approx. total storage required per process         1259.8 MB       294.8 MB |
|                                                                             |
| Requirements will fluctuate during execution and may exceed these estimates |
+-----------------------------------------------------------------------------+
 
 
                           -------------------------------
                                      Unit Cell
                           -------------------------------
        Real Lattice(A)              Reciprocal Lattice(1/A)
     7.2424590     0.0000000     0.0000000        0.867548621  -0.000000000  -0.000000000
     0.0000000     7.2424590    -0.0000000       -0.000000000   0.867548621   0.000000000
     0.0000000    -0.0000000     7.2424590       -0.000000000   0.000000000   0.867548621
 
                       Lattice parameters(A)       Cell Angles
                    a =      7.242459          alpha =   90.000000
                    b =      7.242459          beta  =   90.000000
                    c =      7.242459          gamma =   90.000000
 
                Current cell volume =           379.890237 A**3
                            density =             5.352788 amu/A**3
                                    =             8.888514 g/cm^3
 
                           -------------------------------
                                     Cell Contents
                           -------------------------------
 
            xxxxxxxxxxxxxxxxxxxxxxxxxxxxxxxxxxxxxxxxxxxxxxxxxxxxxxxxxxxxxxxxx
            x  Element         Atom        Fractional coordinates of atoms  x
            x                 Number           u          v          w      x
            x---------------------------------------------------------------x
            x  Cu                1         1.000000   0.000000  -0.000000   x
            x  Cu                2         1.000000   0.250000   0.250000   x
            x  Cu                3         0.250000   0.000000   0.250000   x
            x  Cu                4         0.250000   0.250000  -0.000000   x
            x  Cu                5         0.000000   0.000000   0.500000   x
            x  Cu                6         0.000000   0.250000   0.750000   x
            x  Cu                7         0.250000   0.000000   0.750000   x
            x  Cu                8         0.250000   0.250000   0.500000   x
            x  Cu                9         1.000000   0.500000   0.000000   x
            x  Cu               10         0.000000   0.750000   0.250000   x
            x  Cu               11         0.250000   0.500000   0.250000   x
            x  Cu               12         0.250000   0.750000   0.000000   x
            x  Cu               13         0.000000   0.500000   0.500000   x
            x  Cu               14         0.000000   0.750000   0.750000   x
            x  Cu               15         0.250000   0.500000   0.750000   x
            x  Cu               16         0.250000   0.750000   0.500000   x
            x  Cu               17         0.500000   0.000000   0.000000   x
            x  Cu               18         0.500000   0.250000   0.250000   x
            x  Cu               19         0.750000   0.000000   0.250000   x
            x  Cu               20         0.750000   0.250000  -0.000000   x
            x  Cu               21         0.500000   0.000000   0.500000   x
            x  Cu               22         0.500000   0.250000   0.750000   x
            x  Cu               23         0.750000   0.000000   0.750000   x
            x  Cu               24         0.750000   0.250000   0.500000   x
            x  Cu               25         0.500000   0.500000   0.000000   x
            x  Cu               26         0.500000   0.750000   0.250000   x
            x  Cu               27         0.750000   0.500000   0.250000   x
            x  Cu               28         0.750000   0.750000  -0.000000   x
            x  Cu               29         0.500000   0.500000   0.500000   x
            x  Cu               30         0.500000   0.750000   0.750000   x
            x  Cu               31         0.750000   0.500000   0.750000   x
            x  Cu               32         0.750000   0.750000   0.500000   x
            xxxxxxxxxxxxxxxxxxxxxxxxxxxxxxxxxxxxxxxxxxxxxxxxxxxxxxxxxxxxxxxxx
 
 
------------------------------------------------------------------------ <-- SCF
SCF loop      Energy           Fermi           Energy gain       Timer   <-- SCF
                               energy          per atom          (sec)   <-- SCF
------------------------------------------------------------------------ <-- SCF
Initial  -5.37896454E+004  0.00000000E+000                      1719.47  <-- SCF
      1  -5.37899269E+004  4.43356888E+000   8.79755511E-003    1778.67  <-- SCF
      2  -5.37899270E+004  4.43356763E+000   4.73170558E-006    1811.57  <-- SCF
      3  -5.37901418E+004  4.63515403E+000   6.71048999E-003    1861.18  <-- SCF
      4  -5.37898423E+004  4.50013658E+000  -9.35922148E-003    1901.69  <-- SCF
      5  -5.37898530E+004  4.49972977E+000   3.35533389E-004    1951.70  <-- SCF
      6  -5.37898459E+004  4.50032593E+000  -2.21136159E-004    1997.57  <-- SCF
      7  -5.37898462E+004  4.50005375E+000   7.13215886E-006    2024.15  <-- SCF
      8  -5.37898461E+004  4.50004427E+000  -1.00333674E-006    2053.08  <-- SCF
------------------------------------------------------------------------ <-- SCF
 
Final energy, E             =  -53789.67379366     eV
Final free energy (E-TS)    =  -53789.84612431     eV
(energies not corrected for finite basis set)
 
NB est. 0K energy (E-0.5TS)      =  -53789.75995898     eV
 
 
 ************************************** Forces **************************************
 *                                                                                  *
 *                           Cartesian components (eV/A)                            *
 * -------------------------------------------------------------------------------- *
 *                         x                    y                    z              *
 *                                                                                  *
 * Cu              1      0.00001              0.00007              0.00001         *
 * Cu              2      0.00002             -0.00001              0.00001         *
 * Cu              3     -0.00000              0.00009              0.00002         *
 * Cu              4      0.00001             -0.00001              0.00000         *
 * Cu              5      0.00002              0.00007             -0.00001         *
 * Cu              6      0.00003             -0.00000             -0.00001         *
 * Cu              7     -0.00002              0.00007             -0.00001         *
 * Cu              8      0.00002             -0.00001              0.00001         *
 * Cu              9      0.00000             -0.00005              0.00001         *
 * Cu             10      0.00000              0.00001              0.00000         *
 * Cu             11      0.00002             -0.00011              0.00001         *
 * Cu             12     -0.00000              0.00001             -0.00001         *
 * Cu             13      0.00001             -0.00006             -0.00001         *
 * Cu             14      0.00002              0.00002             -0.00001         *
 * Cu             15      0.00001             -0.00009             -0.00001         *
 * Cu             16      0.00001              0.00001              0.00001         *
 * Cu             17     -0.00001              0.00007              0.00002         *
 * Cu             18     -0.00002             -0.00000              0.00002         *
 * Cu             19     -0.00000              0.00012              0.00002         *
 * Cu             20      0.00001             -0.00001              0.00003         *
 * Cu             21     -0.00002              0.00009             -0.00002         *
 * Cu             22     -0.00003             -0.00001             -0.00002         *
 * Cu             23      0.00002              0.00012             -0.00002         *
 * Cu             24     -0.00001             -0.00001             -0.00002         *
 * Cu             25     -0.00001             -0.00006              0.00002         *
 * Cu             26     -0.00000             -0.00000              0.00002         *
 * Cu             27     -0.00002             -0.00014              0.00002         *
 * Cu             28      0.00001              0.00001             -0.00002         *
 * Cu             29     -0.00001             -0.00009             -0.00002         *
 * Cu             30     -0.00001             -0.00000             -0.00002         *
 * Cu             31     -0.00002             -0.00014             -0.00003         *
 * Cu             32     -0.00000              0.00001              0.00001         *
 *                                                                                  *
 ************************************************************************************
 
 ***************** Stress Tensor *****************
 *                                               *
 *          Cartesian components (GPa)           *
 * --------------------------------------------- *
 *             x             y             z     *
 *                                               *
 *  x     -0.739156      0.000006     -0.000004  *
 *  y      0.000006     -0.739037      0.000008  *
 *  z     -0.000004      0.000008     -0.739008  *
 *                                               *
 *  Pressure:    0.7391                          *
 *                                               *
 *************************************************
 
 *********** Constrained Stress Tensor ***********
 *                                               *
 *          Cartesian components (GPa)           *
 * --------------------------------------------- *
 *             x             y             z     *
 *                                               *
 *  x     -0.739067      0.000000      0.000000  *
 *  y      0.000000     -0.739067      0.000000  *
 *  z      0.000000      0.000000     -0.739067  *
 *                                               *
 *  Pressure:    0.7391                          *
 *                                               *
 *************************************************
  
 +------------+-------------+-------------+-----------------+ <-- min LBFGS
 |    Step    |   lambda    |   F.delta'  |    enthalpy     | <-- min LBFGS
 +------------+-------------+-------------+-----------------+ <-- min LBFGS
 |  previous  |    0.000000 |    0.153226 |   -53789.841966 | <-- min LBFGS
 | trial step |    1.000000 |    0.111351 |   -53789.846166 | <-- min LBFGS
 +------------+-------------+-------------+-----------------+ <-- min LBFGS
  
 LBFGS: finished iteration     2 with enthalpy= -5.37898462E+004 eV
  
 +-----------+-----------------+-----------------+------------+-----+ <-- LBFGS
 | Parameter |      value      |    tolerance    |    units   | OK? | <-- LBFGS
 +-----------+-----------------+-----------------+------------+-----+ <-- LBFGS
 |  dE/ion   |   1.312760E-004 |   2.000000E-005 |         eV | No  | <-- LBFGS
 |  |F|max   |   1.424068E-004 |   5.000000E-002 |       eV/A | Yes | <-- LBFGS
 |  |dR|max  |   4.850580E-007 |   1.000000E-003 |          A | Yes | <-- LBFGS
 |   Smax    |   7.390669E-001 |   1.000000E-001 |        GPa | No  | <-- LBFGS
 +-----------+-----------------+-----------------+------------+-----+ <-- LBFGS
  

================================================================================
 Starting LBFGS iteration          3 ...
================================================================================
  
 +------------+-------------+-------------+-----------------+ <-- min LBFGS
 |    Step    |   lambda    |   F.delta'  |    enthalpy     | <-- min LBFGS
 +------------+-------------+-------------+-----------------+ <-- min LBFGS
 |  previous  |    0.000000 |    0.111351 |   -53789.846166 | <-- min LBFGS
 +------------+-------------+-------------+-----------------+ <-- min LBFGS
  

--------------------------------------------------------------------------------
 LBFGS: starting iteration         3 with trial guess (lambda=  1.000000)
--------------------------------------------------------------------------------
 
+---------------- MEMORY AND SCRATCH DISK ESTIMATES PER PROCESS --------------+
|                                                     Memory          Disk    |
| Model and support data                              341.7 MB       294.8 MB |
| Electronic energy minimisation requirements         392.5 MB         0.0 MB |
| Geometry minimisation requirements                  526.4 MB         0.0 MB |
|                                               ----------------------------- |
| Approx. total storage required per process         1260.6 MB       294.8 MB |
|                                                                             |
| Requirements will fluctuate during execution and may exceed these estimates |
+-----------------------------------------------------------------------------+
 
 
                           -------------------------------
                                      Unit Cell
                           -------------------------------
        Real Lattice(A)              Reciprocal Lattice(1/A)
     7.2460336    -0.0000000     0.0000000        0.867120645   0.000000000  -0.000000000
    -0.0000000     7.2460336    -0.0000000        0.000000000   0.867120645   0.000000000
     0.0000000    -0.0000000     7.2460336       -0.000000000   0.000000000   0.867120645
 
                       Lattice parameters(A)       Cell Angles
                    a =      7.246034          alpha =   90.000000
                    b =      7.246034          beta  =   90.000000
                    c =      7.246034          gamma =   90.000000
 
                Current cell volume =           380.453011 A**3
                            density =             5.344870 amu/A**3
                                    =             8.875366 g/cm^3
 
                           -------------------------------
                                     Cell Contents
                           -------------------------------
 
            xxxxxxxxxxxxxxxxxxxxxxxxxxxxxxxxxxxxxxxxxxxxxxxxxxxxxxxxxxxxxxxxx
            x  Element         Atom        Fractional coordinates of atoms  x
            x                 Number           u          v          w      x
            x---------------------------------------------------------------x
            x  Cu                1         1.000000   0.000000   0.000000   x
            x  Cu                2         1.000000   0.250000   0.250000   x
            x  Cu                3         0.250000   0.000000   0.250000   x
            x  Cu                4         0.250000   0.250000   0.000000   x
            x  Cu                5         0.000000   0.000000   0.500000   x
            x  Cu                6         0.000000   0.250000   0.750000   x
            x  Cu                7         0.250000   0.000000   0.750000   x
            x  Cu                8         0.250000   0.250000   0.500000   x
            x  Cu                9         1.000000   0.500000   0.000000   x
            x  Cu               10         0.000000   0.750000   0.250000   x
            x  Cu               11         0.250000   0.500000   0.250000   x
            x  Cu               12         0.250000   0.750000   0.000000   x
            x  Cu               13         0.000000   0.500000   0.500000   x
            x  Cu               14         0.000000   0.750000   0.750000   x
            x  Cu               15         0.250000   0.500000   0.750000   x
            x  Cu               16         0.250000   0.750000   0.500000   x
            x  Cu               17         0.500000   0.000000   0.000000   x
            x  Cu               18         0.500000   0.250000   0.250000   x
            x  Cu               19         0.750000   0.000000   0.250000   x
            x  Cu               20         0.750000   0.250000   0.000000   x
            x  Cu               21         0.500000   0.000000   0.500000   x
            x  Cu               22         0.500000   0.250000   0.750000   x
            x  Cu               23         0.750000   0.000000   0.750000   x
            x  Cu               24         0.750000   0.250000   0.500000   x
            x  Cu               25         0.500000   0.500000   0.000000   x
            x  Cu               26         0.500000   0.750000   0.250000   x
            x  Cu               27         0.750000   0.500000   0.250000   x
            x  Cu               28         0.750000   0.750000  -0.000000   x
            x  Cu               29         0.500000   0.500000   0.500000   x
            x  Cu               30         0.500000   0.750000   0.750000   x
            x  Cu               31         0.750000   0.500000   0.750000   x
            x  Cu               32         0.750000   0.750000   0.500000   x
            xxxxxxxxxxxxxxxxxxxxxxxxxxxxxxxxxxxxxxxxxxxxxxxxxxxxxxxxxxxxxxxxx
 
 
------------------------------------------------------------------------ <-- SCF
SCF loop      Energy           Fermi           Energy gain       Timer   <-- SCF
                               energy          per atom          (sec)   <-- SCF
------------------------------------------------------------------------ <-- SCF
Initial  -5.37896607E+004  0.00000000E+000                      2202.77  <-- SCF
      1  -5.37898907E+004  4.43761743E+000   7.18834759E-003    2262.58  <-- SCF
      2  -5.37898908E+004  4.43761680E+000   2.29796889E-006    2290.69  <-- SCF
      3  -5.37900039E+004  4.58308700E+000   3.53422961E-003    2331.90  <-- SCF
      4  -5.37898460E+004  4.48606778E+000  -4.93498956E-003    2370.62  <-- SCF
      5  -5.37898491E+004  4.48610642E+000   9.80288527E-005    2412.97  <-- SCF
      6  -5.37898482E+004  4.48625216E+000  -2.82885407E-005    2447.44  <-- SCF
      7  -5.37898482E+004  4.48604613E+000   1.22232580E-006    2474.13  <-- SCF
      8  -5.37898482E+004  4.48603870E+000  -3.72763779E-007    2499.22  <-- SCF
------------------------------------------------------------------------ <-- SCF
 
Final energy, E             =  -53789.67553385     eV
Final free energy (E-TS)    =  -53789.84822437     eV
(energies not corrected for finite basis set)
 
NB est. 0K energy (E-0.5TS)      =  -53789.76187911     eV
 
 
 ************************************** Forces **************************************
 *                                                                                  *
 *                           Cartesian components (eV/A)                            *
 * -------------------------------------------------------------------------------- *
 *                         x                    y                    z              *
 *                                                                                  *
 * Cu              1      0.00003              0.00010              0.00000         *
 * Cu              2     -0.00000             -0.00002              0.00000         *
 * Cu              3     -0.00000              0.00010              0.00001         *
 * Cu              4      0.00000             -0.00001              0.00001         *
 * Cu              5      0.00001              0.00010              0.00000         *
 * Cu              6      0.00001             -0.00002             -0.00000         *
 * Cu              7     -0.00002              0.00008             -0.00001         *
 * Cu              8      0.00001             -0.00001             -0.00000         *
 * Cu              9      0.00002             -0.00009              0.00000         *
 * Cu             10      0.00002              0.00003              0.00000         *
 * Cu             11      0.00003             -0.00011              0.00001         *
 * Cu             12     -0.00000              0.00001             -0.00000         *
 * Cu             13      0.00001             -0.00009             -0.00001         *
 * Cu             14      0.00003              0.00003             -0.00000         *
 * Cu             15      0.00001             -0.00007             -0.00001         *
 * Cu             16      0.00001              0.00001              0.00000         *
 * Cu             17     -0.00002              0.00011              0.00001         *
 * Cu             18      0.00000              0.00001              0.00001         *
 * Cu             19      0.00001              0.00011              0.00002         *
 * Cu             20      0.00000             -0.00002              0.00002         *
 * Cu             21     -0.00001              0.00010             -0.00001         *
 * Cu             22      0.00000             -0.00000             -0.00002         *
 * Cu             23      0.00002              0.00007             -0.00002         *
 * Cu             24     -0.00002             -0.00002             -0.00002         *
 * Cu             25     -0.00003             -0.00011              0.00002         *
 * Cu             26     -0.00002              0.00000              0.00002         *
 * Cu             27     -0.00003             -0.00011              0.00002         *
 * Cu             28      0.00001              0.00000              0.00000         *
 * Cu             29     -0.00001             -0.00012             -0.00002         *
 * Cu             30     -0.00002              0.00000             -0.00002         *
 * Cu             31     -0.00001             -0.00007             -0.00002         *
 * Cu             32     -0.00001              0.00001             -0.00000         *
 *                                                                                  *
 ************************************************************************************
 
 ***************** Stress Tensor *****************
 *                                               *
 *          Cartesian components (GPa)           *
 * --------------------------------------------- *
 *             x             y             z     *
 *                                               *
 *  x     -0.528547     -0.000002      0.000004  *
 *  y     -0.000002     -0.528674     -0.000003  *
 *  z      0.000004     -0.000003     -0.528573  *
 *                                               *
 *  Pressure:    0.5286                          *
 *                                               *
 *************************************************
 
 *********** Constrained Stress Tensor ***********
 *                                               *
 *          Cartesian components (GPa)           *
 * --------------------------------------------- *
 *             x             y             z     *
 *                                               *
 *  x     -0.528598     -0.000000      0.000000  *
 *  y     -0.000000     -0.528598     -0.000000  *
 *  z      0.000000     -0.000000     -0.528598  *
 *                                               *
 *  Pressure:    0.5286                          *
 *                                               *
 *************************************************
  
 +------------+-------------+-------------+-----------------+ <-- min LBFGS
 |    Step    |   lambda    |   F.delta'  |    enthalpy     | <-- min LBFGS
 +------------+-------------+-------------+-----------------+ <-- min LBFGS
 |  previous  |    0.000000 |    0.111351 |   -53789.846166 | <-- min LBFGS
 | trial step |    1.000000 |    0.079719 |   -53789.848354 | <-- min LBFGS
 +------------+-------------+-------------+-----------------+ <-- min LBFGS
  
 LBFGS: finished iteration     3 with enthalpy= -5.37898484E+004 eV
  
 +-----------+-----------------+-----------------+------------+-----+ <-- LBFGS
 | Parameter |      value      |    tolerance    |    units   | OK? | <-- LBFGS
 +-----------+-----------------+-----------------+------------+-----+ <-- LBFGS
 |  dE/ion   |   6.835417E-005 |   2.000000E-005 |         eV | No  | <-- LBFGS
 |  |F|max   |   1.265013E-004 |   5.000000E-002 |       eV/A | Yes | <-- LBFGS
 |  |dR|max  |   2.199448E-007 |   1.000000E-003 |          A | Yes | <-- LBFGS
 |   Smax    |   5.285980E-001 |   1.000000E-001 |        GPa | No  | <-- LBFGS
 +-----------+-----------------+-----------------+------------+-----+ <-- LBFGS
  

================================================================================
 Starting LBFGS iteration          4 ...
================================================================================
  
 +------------+-------------+-------------+-----------------+ <-- min LBFGS
 |    Step    |   lambda    |   F.delta'  |    enthalpy     | <-- min LBFGS
 +------------+-------------+-------------+-----------------+ <-- min LBFGS
 |  previous  |    0.000000 |    0.079719 |   -53789.848354 | <-- min LBFGS
 +------------+-------------+-------------+-----------------+ <-- min LBFGS
  

--------------------------------------------------------------------------------
 LBFGS: starting iteration         4 with trial guess (lambda=  1.000000)
--------------------------------------------------------------------------------
 
                           -------------------------------
                                      Unit Cell
                           -------------------------------
        Real Lattice(A)              Reciprocal Lattice(1/A)
     7.2485927     0.0000000    -0.0000000        0.866814503  -0.000000000   0.000000000
     0.0000000     7.2485927     0.0000000       -0.000000000   0.866814503  -0.000000000
    -0.0000000     0.0000000     7.2485927        0.000000000  -0.000000000   0.866814503
 
                       Lattice parameters(A)       Cell Angles
                    a =      7.248593          alpha =   90.000000
                    b =      7.248593          beta  =   90.000000
                    c =      7.248593          gamma =   90.000000
 
                Current cell volume =           380.856259 A**3
                            density =             5.339211 amu/A**3
                                    =             8.865969 g/cm^3
 
                           -------------------------------
                                     Cell Contents
                           -------------------------------
 
            xxxxxxxxxxxxxxxxxxxxxxxxxxxxxxxxxxxxxxxxxxxxxxxxxxxxxxxxxxxxxxxxx
            x  Element         Atom        Fractional coordinates of atoms  x
            x                 Number           u          v          w      x
            x---------------------------------------------------------------x
            x  Cu                1         1.000000   0.000000   0.000000   x
            x  Cu                2         1.000000   0.250000   0.250000   x
            x  Cu                3         0.250000   0.000000   0.250000   x
            x  Cu                4         0.250000   0.250000   0.000000   x
            x  Cu                5         0.000000   0.000000   0.500000   x
            x  Cu                6         0.000000   0.250000   0.750000   x
            x  Cu                7         0.250000   0.000000   0.750000   x
            x  Cu                8         0.250000   0.250000   0.500000   x
            x  Cu                9         1.000000   0.500000   0.000000   x
            x  Cu               10         0.000000   0.750000   0.250000   x
            x  Cu               11         0.250000   0.500000   0.250000   x
            x  Cu               12         0.250000   0.750000   0.000000   x
            x  Cu               13         0.000000   0.500000   0.500000   x
            x  Cu               14         0.000000   0.750000   0.750000   x
            x  Cu               15         0.250000   0.500000   0.750000   x
            x  Cu               16         0.250000   0.750000   0.500000   x
            x  Cu               17         0.500000   0.000000   0.000000   x
            x  Cu               18         0.500000   0.250000   0.250000   x
            x  Cu               19         0.750000   0.000000   0.250000   x
            x  Cu               20         0.750000   0.250000   0.000000   x
            x  Cu               21         0.500000   0.000000   0.500000   x
            x  Cu               22         0.500000   0.250000   0.750000   x
            x  Cu               23         0.750000   0.000000   0.750000   x
            x  Cu               24         0.750000   0.250000   0.500000   x
            x  Cu               25         0.500000   0.500000   0.000000   x
            x  Cu               26         0.500000   0.750000   0.250000   x
            x  Cu               27         0.750000   0.500000   0.250000   x
            x  Cu               28         0.750000   0.750000  -0.000000   x
            x  Cu               29         0.500000   0.500000   0.500000   x
            x  Cu               30         0.500000   0.750000   0.750000   x
            x  Cu               31         0.750000   0.500000   0.750000   x
            x  Cu               32         0.750000   0.750000   0.500000   x
            xxxxxxxxxxxxxxxxxxxxxxxxxxxxxxxxxxxxxxxxxxxxxxxxxxxxxxxxxxxxxxxxx
 
 
------------------------------------------------------------------------ <-- SCF
SCF loop      Energy           Fermi           Energy gain       Timer   <-- SCF
                               energy          per atom          (sec)   <-- SCF
------------------------------------------------------------------------ <-- SCF
Initial  -5.37896688E+004  0.00000000E+000                      2633.60  <-- SCF
      1  -5.37898712E+004  4.44128187E+000   6.32443598E-003    2689.38  <-- SCF
      2  -5.37898712E+004  4.44128159E+000   1.17961530E-006    2717.54  <-- SCF
      3  -5.37899292E+004  4.54498382E+000   1.81235384E-003    2762.64  <-- SCF
      4  -5.37898482E+004  4.47606965E+000  -2.53048099E-003    2809.04  <-- SCF
      5  -5.37898495E+004  4.47621275E+000   4.08733184E-005    2833.74  <-- SCF
      6  -5.37898494E+004  4.47619398E+000  -3.76645888E-006    2861.42  <-- SCF
      7  -5.37898494E+004  4.47603098E+000   2.61017417E-007    2892.14  <-- SCF
------------------------------------------------------------------------ <-- SCF
 
Final energy, E             =  -53789.67648137     eV
Final free energy (E-TS)    =  -53789.84942845     eV
(energies not corrected for finite basis set)
 
NB est. 0K energy (E-0.5TS)      =  -53789.76295491     eV
 
 
 ************************************** Forces **************************************
 *                                                                                  *
 *                           Cartesian components (eV/A)                            *
 * -------------------------------------------------------------------------------- *
 *                         x                    y                    z              *
 *                                                                                  *
 * Cu              1     -0.00005             -0.00012             -0.00002         *
 * Cu              2     -0.00003              0.00003             -0.00002         *
 * Cu              3     -0.00001             -0.00013             -0.00003         *
 * Cu              4     -0.00002              0.00003             -0.00001         *
 * Cu              5     -0.00005             -0.00013              0.00002         *
 * Cu              6     -0.00004              0.00004              0.00002         *
 * Cu              7     -0.00001             -0.00014              0.00003         *
 * Cu              8     -0.00002              0.00004              0.00001         *
 * Cu              9     -0.00006              0.00013             -0.00002         *
 * Cu             10     -0.00006             -0.00004             -0.00003         *
 * Cu             11     -0.00002              0.00012             -0.00002         *
 * Cu             12     -0.00001             -0.00002             -0.00001         *
 * Cu             13     -0.00005              0.00014              0.00001         *
 * Cu             14     -0.00007             -0.00004              0.00002         *
 * Cu             15     -0.00002              0.00013              0.00003         *
 * Cu             16     -0.00000             -0.00002              0.00001         *
 * Cu             17      0.00005             -0.00013             -0.00001         *
 * Cu             18      0.00003              0.00002             -0.00003         *
 * Cu             19      0.00000             -0.00013             -0.00002         *
 * Cu             20      0.00002              0.00003             -0.00001         *
 * Cu             21      0.00005             -0.00013              0.00001         *
 * Cu             22      0.00005              0.00003              0.00003         *
 * Cu             23      0.00001             -0.00013              0.00003         *
 * Cu             24      0.00003              0.00003              0.00002         *
 * Cu             25      0.00005              0.00013             -0.00001         *
 * Cu             26      0.00006             -0.00002             -0.00004         *
 * Cu             27      0.00001              0.00012             -0.00003         *
 * Cu             28      0.00001             -0.00003             -0.00003         *
 * Cu             29      0.00005              0.00013              0.00001         *
 * Cu             30      0.00007             -0.00003              0.00004         *
 * Cu             31      0.00002              0.00013              0.00003         *
 * Cu             32      0.00001             -0.00003              0.00002         *
 *                                                                                  *
 ************************************************************************************
 
 ***************** Stress Tensor *****************
 *                                               *
 *          Cartesian components (GPa)           *
 * --------------------------------------------- *
 *             x             y             z     *
 *                                               *
 *  x     -0.372411      0.000012     -0.000001  *
 *  y      0.000012     -0.372212      0.000003  *
 *  z     -0.000001      0.000003     -0.372380  *
 *                                               *
 *  Pressure:    0.3723                          *
 *                                               *
 *************************************************
 
 *********** Constrained Stress Tensor ***********
 *                                               *
 *          Cartesian components (GPa)           *
 * --------------------------------------------- *
 *             x             y             z     *
[...]
     Cu    23      Dzy                  1.931
     Cu    23      Dzx                  1.931
     Cu    23      Dxx-yy               1.956
     Cu    23      Dxy                  1.931
     Cu    23      S                    0.804
     Cu    23      Px                   0.164
     Cu    23      Py                   0.164
     Cu    23      Pz                   0.164
     Cu    24      Dzz                  1.956
     Cu    24      Dzy                  1.931
     Cu    24      Dzx                  1.931
     Cu    24      Dxx-yy               1.956
     Cu    24      Dxy                  1.931
     Cu    24      S                    0.804
     Cu    24      Px                   0.164
     Cu    24      Py                   0.164
     Cu    24      Pz                   0.164
     Cu    25      Dzz                  1.956
     Cu    25      Dzy                  1.931
     Cu    25      Dzx                  1.931
     Cu    25      Dxx-yy               1.956
     Cu    25      Dxy                  1.931
     Cu    25      S                    0.804
     Cu    25      Px                   0.164
     Cu    25      Py                   0.164
     Cu    25      Pz                   0.164
     Cu    26      Dzz                  1.956
     Cu    26      Dzy                  1.931
     Cu    26      Dzx                  1.931
     Cu    26      Dxx-yy               1.956
     Cu    26      Dxy                  1.931
     Cu    26      S                    0.804
     Cu    26      Px                   0.164
     Cu    26      Py                   0.164
     Cu    26      Pz                   0.164
     Cu    27      Dzz                  1.956
     Cu    27      Dzy                  1.931
     Cu    27      Dzx                  1.931
     Cu    27      Dxx-yy               1.956
     Cu    27      Dxy                  1.931
     Cu    27      S                    0.804
     Cu    27      Px                   0.164
     Cu    27      Py                   0.164
     Cu    27      Pz                   0.164
     Cu    28      Dzz                  1.956
     Cu    28      Dzy                  1.931
     Cu    28      Dzx                  1.931
     Cu    28      Dxx-yy               1.956
     Cu    28      Dxy                  1.931
     Cu    28      S                    0.804
     Cu    28      Px                   0.164
     Cu    28      Py                   0.164
     Cu    28      Pz                   0.164
     Cu    29      Dzz                  1.956
     Cu    29      Dzy                  1.931
     Cu    29      Dzx                  1.931
     Cu    29      Dxx-yy               1.956
     Cu    29      Dxy                  1.931
     Cu    29      S                    0.804
     Cu    29      Px                   0.164
     Cu    29      Py                   0.164
     Cu    29      Pz                   0.164
     Cu    30      Dzz                  1.956
     Cu    30      Dzy                  1.931
     Cu    30      Dzx                  1.931
     Cu    30      Dxx-yy               1.956
     Cu    30      Dxy                  1.931
     Cu    30      S                    0.804
     Cu    30      Px                   0.164
     Cu    30      Py                   0.164
     Cu    30      Pz                   0.164
     Cu    31      Dzz                  1.956
     Cu    31      Dzy                  1.931
     Cu    31      Dzx                  1.931
     Cu    31      Dxx-yy               1.956
     Cu    31      Dxy                  1.931
     Cu    31      S                    0.804
     Cu    31      Px                   0.164
     Cu    31      Py                   0.164
     Cu    31      Pz                   0.164
     Cu    32      Dzz                  1.956
     Cu    32      Dzy                  1.931
     Cu    32      Dzx                  1.931
     Cu    32      Dxx-yy               1.956
     Cu    32      Dxy                  1.931
     Cu    32      S                    0.804
     Cu    32      Px                   0.164
     Cu    32      Py                   0.164
     Cu    32      Pz                   0.164
  -------------------------------------------
                           Total:     352.000
  -------------------------------------------
 
     Atomic Populations (Mulliken)
     -----------------------------
Species          Ion     s       p       d       f      Total   Charge (e)
==========================================================================
  Cu              1     0.804   0.491   9.705   0.000  11.000     0.000
  Cu              2     0.804   0.491   9.705   0.000  11.000     0.000
  Cu              3     0.804   0.491   9.705   0.000  11.000     0.000
  Cu              4     0.804   0.491   9.705   0.000  11.000     0.000
  Cu              5     0.804   0.491   9.705   0.000  11.000     0.000
  Cu              6     0.804   0.491   9.705   0.000  11.000     0.000
  Cu              7     0.804   0.491   9.705   0.000  11.000     0.000
  Cu              8     0.804   0.491   9.705   0.000  11.000     0.000
  Cu              9     0.804   0.491   9.705   0.000  11.000    -0.000
  Cu             10     0.804   0.491   9.705   0.000  11.000    -0.000
  Cu             11     0.804   0.491   9.705   0.000  11.000     0.000
  Cu             12     0.804   0.491   9.705   0.000  11.000    -0.000
  Cu             13     0.804   0.491   9.705   0.000  11.000    -0.000
  Cu             14     0.804   0.491   9.705   0.000  11.000     0.000
  Cu             15     0.804   0.491   9.705   0.000  11.000    -0.000
  Cu             16     0.804   0.491   9.705   0.000  11.000    -0.000
  Cu             17     0.804   0.491   9.705   0.000  11.000    -0.000
  Cu             18     0.804   0.491   9.705   0.000  11.000     0.000
  Cu             19     0.804   0.491   9.705   0.000  11.000     0.000
  Cu             20     0.804   0.491   9.705   0.000  11.000     0.000
  Cu             21     0.804   0.491   9.705   0.000  11.000     0.000
  Cu             22     0.804   0.491   9.705   0.000  11.000     0.000
  Cu             23     0.804   0.491   9.705   0.000  11.000    -0.000
  Cu             24     0.804   0.491   9.705   0.000  11.000     0.000
  Cu             25     0.804   0.491   9.705   0.000  11.000    -0.000
  Cu             26     0.804   0.491   9.705   0.000  11.000    -0.000
  Cu             27     0.804   0.491   9.705   0.000  11.000     0.000
  Cu             28     0.804   0.491   9.705   0.000  11.000    -0.000
  Cu             29     0.804   0.491   9.705   0.000  11.000    -0.000
  Cu             30     0.804   0.491   9.705   0.000  11.000    -0.000
  Cu             31     0.804   0.491   9.705   0.000  11.000    -0.000
  Cu             32     0.804   0.491   9.705   0.000  11.000    -0.000
==========================================================================
 
                 Bond                   Population      Length (A)
======================================================================
             Cu 19 -- Cu 24                  0.27        2.56445
             Cu 11 -- Cu 18                  0.27        2.56445
             Cu 2  -- Cu 3                   0.27        2.56445
             Cu 4  -- Cu 17                  0.27        2.56445
             Cu 8  -- Cu 21                  0.27        2.56445
             Cu 24 -- Cu 27                  0.27        2.56445
             Cu 18 -- Cu 29                  0.27        2.56445
             Cu 18 -- Cu 21                  0.27        2.56445
             Cu 8  -- Cu 29                  0.27        2.56445
             Cu 23 -- Cu 24                  0.27        2.56445
             Cu 6  -- Cu 7                   0.27        2.56445
             Cu 4  -- Cu 25                  0.27        2.56445
             Cu 3  -- Cu 18                  0.27        2.56445
             Cu 5  -- Cu 6                   0.27        2.56445
             Cu 2  -- Cu 5                   0.27        2.56445
             Cu 1  -- Cu 4                   0.27        2.56445
             Cu 3  -- Cu 8                   0.27        2.56445
             Cu 19 -- Cu 20                  0.27        2.56445
             Cu 8  -- Cu 11                  0.27        2.56445
             Cu 21 -- Cu 22                  0.27        2.56445
             Cu 2  -- Cu 11                  0.27        2.56445
             Cu 18 -- Cu 27                  0.27        2.56445
             Cu 24 -- Cu 31                  0.27        2.56445
             Cu 17 -- Cu 18                  0.27        2.56445
             Cu 2  -- Cu 19                  0.27        2.56445
             Cu 22 -- Cu 29                  0.27        2.56445
             Cu 18 -- Cu 19                  0.27        2.56445
             Cu 6  -- Cu 23                  0.27        2.56445
             Cu 7  -- Cu 8                   0.27        2.56445
             Cu 5  -- Cu 8                   0.27        2.56445
             Cu 22 -- Cu 31                  0.27        2.56445
             Cu 15 -- Cu 22                  0.27        2.56445
             Cu 18 -- Cu 25                  0.27        2.56445
             Cu 21 -- Cu 24                  0.27        2.56445
             Cu 1  -- Cu 6                   0.27        2.56445
             Cu 17 -- Cu 20                  0.27        2.56445
             Cu 2  -- Cu 13                  0.27        2.56445
             Cu 3  -- Cu 4                   0.27        2.56445
             Cu 1  -- Cu 2                   0.27        2.56445
             Cu 20 -- Cu 27                  0.27        2.56445
             Cu 22 -- Cu 23                  0.27        2.56445
             Cu 4  -- Cu 9                   0.27        2.56445
             Cu 8  -- Cu 15                  0.27        2.56445
             Cu 7  -- Cu 22                  0.27        2.56445
             Cu 20 -- Cu 23                  0.27        2.56445
             Cu 4  -- Cu 11                  0.27        2.56445
             Cu 1  -- Cu 20                  0.27        2.56445
             Cu 24 -- Cu 29                  0.27        2.56445
             Cu 8  -- Cu 13                  0.27        2.56445
             Cu 17 -- Cu 22                  0.27        2.56445
             Cu 6  -- Cu 15                  0.27        2.56445
             Cu 4  -- Cu 7                   0.27        2.56445
             Cu 5  -- Cu 24                  0.27        2.56445
             Cu 6  -- Cu 13                  0.27        2.56445
             Cu 20 -- Cu 25                  0.27        2.56445
             Cu 2  -- Cu 9                   0.27        2.56445
             Cu 22 -- Cu 25                  0.27        2.56445
             Cu 20 -- Cu 31                  0.27        2.56445
             Cu 4  -- Cu 15                  0.27        2.56445
             Cu 9  -- Cu 20                  0.27        2.56445
             Cu 2  -- Cu 27                  0.27        2.56445
             Cu 11 -- Cu 29                  0.27        2.56445
             Cu 13 -- Cu 24                  0.27        2.56445
             Cu 6  -- Cu 9                   0.27        2.56445
             Cu 6  -- Cu 31                  0.27        2.56445
             Cu 8  -- Cu 18                  0.27        2.56445
             Cu 16 -- Cu 26                  0.27        2.56445
             Cu 8  -- Cu 22                  0.27        2.56445
             Cu 16 -- Cu 30                  0.27        2.56445
             Cu 3  -- Cu 21                  0.27        2.56445
             Cu 5  -- Cu 7                   0.27        2.56445
             Cu 27 -- Cu 29                  0.27        2.56445
             Cu 11 -- Cu 25                  0.27        2.56445
             Cu 3  -- Cu 5                   0.27        2.56445
             Cu 10 -- Cu 16                  0.27        2.56445
             Cu 2  -- Cu 8                   0.27        2.56445
             Cu 1  -- Cu 7                   0.27        2.56445
             Cu 6  -- Cu 8                   0.27        2.56445
             Cu 11 -- Cu 13                  0.27        2.56445
             Cu 15 -- Cu 29                  0.27        2.56445
             Cu 4  -- Cu 18                  0.27        2.56445
             Cu 19 -- Cu 21                  0.27        2.56445
             Cu 14 -- Cu 16                  0.27        2.56445
             Cu 3  -- Cu 17                  0.27        2.56445
             Cu 30 -- Cu 32                  0.27        2.56445
             Cu 10 -- Cu 12                  0.27        2.56445
             Cu 22 -- Cu 24                  0.27        2.56445
             Cu 2  -- Cu 4                   0.27        2.56445
             Cu 12 -- Cu 26                  0.27        2.56445
             Cu 1  -- Cu 3                   0.27        2.56445
             Cu 7  -- Cu 21                  0.27        2.56445
             Cu 15 -- Cu 25                  0.27        2.56445
             Cu 5  -- Cu 19                  0.27        2.56445
             Cu 13 -- Cu 15                  0.27        2.56445
             Cu 5  -- Cu 23                  0.27        2.56445
             Cu 14 -- Cu 32                  0.27        2.56445
             Cu 4  -- Cu 22                  0.27        2.56445
             Cu 18 -- Cu 24                  0.27        2.56445
             Cu 29 -- Cu 31                  0.27        2.56445
             Cu 13 -- Cu 27                  0.27        2.56445
             Cu 4  -- Cu 6                   0.27        2.56445
             Cu 12 -- Cu 14                  0.27        2.56445
             Cu 9  -- Cu 11                  0.27        2.56445
             Cu 26 -- Cu 32                  0.27        2.56445
             Cu 9  -- Cu 15                  0.27        2.56445
             Cu 25 -- Cu 27                  0.27        2.56445
             Cu 6  -- Cu 24                  0.27        2.56445
             Cu 7  -- Cu 17                  0.27        2.56445
             Cu 12 -- Cu 30                  0.27        2.56445
             Cu 10 -- Cu 32                  0.27        2.56445
             Cu 21 -- Cu 23                  0.27        2.56445
             Cu 14 -- Cu 28                  0.27        2.56445
             Cu 2  -- Cu 24                  0.27        2.56445
             Cu 13 -- Cu 31                  0.27        2.56445
             Cu 25 -- Cu 31                  0.27        2.56445
             Cu 2  -- Cu 20                  0.27        2.56445
             Cu 17 -- Cu 19                  0.27        2.56445
             Cu 18 -- Cu 20                  0.27        2.56445
             Cu 1  -- Cu 23                  0.27        2.56445
             Cu 10 -- Cu 28                  0.27        2.56445
             Cu 20 -- Cu 22                  0.27        2.56445
             Cu 7  -- Cu 14                  0.27        2.56445
             Cu 6  -- Cu 20                  0.27        2.56445
             Cu 28 -- Cu 30                  0.27        2.56445
             Cu 26 -- Cu 28                  0.27        2.56445
             Cu 9  -- Cu 27                  0.27        2.56445
             Cu 1  -- Cu 19                  0.27        2.56445
             Cu 9  -- Cu 31                  0.27        2.56445
             Cu 17 -- Cu 23                  0.27        2.56445
             Cu 3  -- Cu 10                  0.27        2.56445
             Cu 5  -- Cu 14                  0.27        2.56445
             Cu 5  -- Cu 10                  0.27        2.56445
             Cu 16 -- Cu 21                  0.27        2.56445
             Cu 1  -- Cu 12                  0.27        2.56445
             Cu 7  -- Cu 16                  0.27        2.56445
             Cu 21 -- Cu 26                  0.27        2.56445
             Cu 3  -- Cu 16                  0.27        2.56445
             Cu 5  -- Cu 16                  0.27        2.56445
             Cu 15 -- Cu 30                  0.27        2.56445
             Cu 3  -- Cu 26                  0.27        2.56445
             Cu 23 -- Cu 32                  0.27        2.56445
             Cu 12 -- Cu 17                  0.27        2.56445
             Cu 7  -- Cu 30                  0.27        2.56445
             Cu 21 -- Cu 30                  0.27        2.56445
             Cu 11 -- Cu 26                  0.27        2.56445
             Cu 7  -- Cu 12                  0.27        2.56445
             Cu 1  -- Cu 14                  0.27        2.56445
             Cu 10 -- Cu 13                  0.27        2.56445
             Cu 26 -- Cu 29                  0.27        2.56445
             Cu 9  -- Cu 12                  0.27        2.56445
             Cu 1  -- Cu 10                  0.27        2.56445
             Cu 19 -- Cu 32                  0.27        2.56445
             Cu 14 -- Cu 23                  0.27        2.56445
             Cu 13 -- Cu 16                  0.27        2.56445
             Cu 15 -- Cu 16                  0.27        2.56445
             Cu 3  -- Cu 12                  0.27        2.56445
             Cu 31 -- Cu 32                  0.27        2.56445
             Cu 17 -- Cu 26                  0.27        2.56445
             Cu 16 -- Cu 29                  0.27        2.56445
             Cu 12 -- Cu 25                  0.27        2.56445
             Cu 5  -- Cu 32                  0.27        2.56445
             Cu 13 -- Cu 14                  0.27        2.56445
             Cu 14 -- Cu 15                  0.27        2.56445
             Cu 29 -- Cu 30                  0.27        2.56445
             Cu 1  -- Cu 28                  0.27        2.56445
             Cu 21 -- Cu 32                  0.27        2.56445
             Cu 11 -- Cu 16                  0.27        2.56445
             Cu 23 -- Cu 28                  0.27        2.56445
             Cu 12 -- Cu 15                  0.27        2.56445
             Cu 30 -- Cu 31                  0.27        2.56445
             Cu 27 -- Cu 32                  0.27        2.56445
             Cu 9  -- Cu 28                  0.27        2.56445
             Cu 23 -- Cu 30                  0.27        2.56445
             Cu 13 -- Cu 32                  0.27        2.56445
             Cu 9  -- Cu 10                  0.27        2.56445
             Cu 17 -- Cu 28                  0.27        2.56445
             Cu 25 -- Cu 26                  0.27        2.56445
             Cu 28 -- Cu 31                  0.27        2.56445
             Cu 10 -- Cu 19                  0.27        2.56445
             Cu 10 -- Cu 11                  0.27        2.56445
             Cu 19 -- Cu 26                  0.27        2.56445
             Cu 11 -- Cu 12                  0.27        2.56445
             Cu 29 -- Cu 32                  0.27        2.56445
             Cu 17 -- Cu 30                  0.27        2.56445
             Cu 9  -- Cu 14                  0.27        2.56445
             Cu 26 -- Cu 27                  0.27        2.56445
             Cu 19 -- Cu 28                  0.27        2.56445
             Cu 25 -- Cu 28                  0.27        2.56445
             Cu 25 -- Cu 30                  0.27        2.56445
             Cu 27 -- Cu 28                  0.27        2.56445
             Cu 14 -- Cu 31                  0.27        2.56445
             Cu 10 -- Cu 27                  0.27        2.56445
======================================================================
 

Writing analysis data to CuBulk.castep_bin

Writing model to CuBulk.check
Initialisation time =     12.46 s
Calculation time    =   4790.16 s
Finalisation time   =      4.11 s
Total time          =   4806.74 s
Peak Memory Use     = 1907224 kB
  
Overall parallel efficiency rating: Excellent (98%)                             
  
Data was distributed by:-
k-point (8-way); efficiency rating: Excellent (98%)                             
