 +-------------------------------------------------+
 |                                                 |
 |      CCC   AA    SSS  TTTTT  EEEEE  PPPP        |
 |     C     A  A  S       T    E      P   P       |
 |     C     AAAA   SS     T    EEE    PPPP        |
 |     C     A  A     S    T    E      P           |
 |      CCC  A  A  SSS     T    EEEEE  P           |
 |                                                 |
 +-------------------------------------------------+
 |                                                 |
 | Welcome to Academic Release CASTEP version 22.1 |          
 | Ab Initio Total Energy Program                  |
 |                                                 |
 | Authors:                                        |
 | M. Segall, M. Probert, C. Pickard, P. Hasnip,   |
 | S. Clark, K. Refson, J. R. Yates, M. Payne      |
 |                                                 |
 | Contributors:                                   |
 | P. Lindan, P. Haynes, J. White, V. Milman,      |
 | N. Govind, M. Gibson, P. Tulip, V. Cocula,      |
 | B. Montanari, D. Quigley, M. Glover,            |
 | L. Bernasconi, A. Perlov, M. Plummer,           |
 | E. McNellis, J. Meyer, J. Gale, D. Jochym       |
 | J. Aarons, B. Walker, R. Gillen, D. Jones       |
 | T. Green, I. J. Bush, C. J. Armstrong,          |
 | E. J. Higgins, E. L. Brown, M. S. McFly,        |
 | J. Wilkins, B-C. Shih, P. J. P. Byrne,          |
 | R. J. Maurer, J. C. Womack, J. Dziedzic,        |
 | A. Bartok-Partay, L. LeBlanc, T. K. Stenczel,   |
 | J. Kermode, S. Sturniolo                        |
 |                                                 |
 | Copyright (c) 2000 - 2021                       |
 |                                                 |
 |     Distributed under license from Cambridge    |
 |     Enterprise for academic use only.           |
 |                                                 |
 | Please cite                                     |
 |                                                 |
 |     "First principles methods using CASTEP"     |
 |                                                 |
 |         Zeitschrift fuer Kristallographie       |
 |           220(5-6) pp. 567-570 (2005)           |
 |                                                 |
 | S. J. Clark, M. D. Segall, C. J. Pickard,       |
 | P. J. Hasnip, M. J. Probert, K. Refson,         |
 | M. C. Payne                                     |
 |                                                 |
 |       in all publications arising from          |
 |              your use of CASTEP                 |
 |                                                 |
 +-------------------------------------------------+
 |                                                 |
 |              http://www.castep.org              |
 |                                                 |
 +-------------------------------------------------+
 
 
 
 Compiled for linux_x86_64_ifort on Mon, 15 Nov 2021 11:53:18 +0000
 from code version 
 bc31e48+  new-neb-implementation  Mon Nov 15 11:53:07 2021 +0000
 Compiler: Intel Fortran 18.0.3.222; Optimisation: fast
 MATHLIBS: Intel MKL(2018.0.3) (LAPACK version 3.7.0)
 FFT Lib : default
 Fundamental constants values: CODATA 2014
 
 Run started: Mon, 15 Nov 2021 12:35:37 +0000
 
 Atomic calculation performed for Cu: 1s2 2s2 2p6 3s2 3p6 3d10 4s1
 
 Converged in 143 iterations to an ae energy of -45030.712 eV
 
   ============================================================                
   | Pseudopotential Report - Date of generation 15-11-2021   |                
   ------------------------------------------------------------                
   | Element: Cu Ionic charge: 11.00 Level of theory: PBE     |                
   | Atomic Solver: Koelling-Harmon                           |                
   |                                                          |                
   |               Reference Electronic Structure             |                
   |         Orbital         Occupation         Energy        |                
   |            3d             10.000           -0.185        |                
   |            4s              1.000           -0.169        |                
   |                                                          |                
   |                 Pseudopotential Definition               |                
   |        Beta     l      e      Rc     scheme   norm       |                
   |          1      0   -0.169   1.996     qc      0         |                
   |          2      0    0.250   1.996     qc      0         |                
   |          3      1    0.000   1.996     qc      0         |                
   |          4      1    0.250   1.996     qc      0         |                
   |          5      2   -0.185   1.996     qc      0         |                
   |          6      2    0.250   1.996     qc      0         |                
   |         loc     3    0.000   2.206     pn      0         |                
   |                                                          |                
   | Augmentation charge Rinner = 0.999                       |                
   | Partial core correction Rc = 0.999                       |                
   ------------------------------------------------------------                
   | "3|2.2|2.0|1.0|10|12|13|40:41:32(qc=6)"                  |                
   ------------------------------------------------------------                
   |      Author: Chris J. Pickard, Cambridge University      |                
   ============================================================                
 
 Pseudo atomic calculation performed for Cu 3d10 4s1
 
 Converged in 49 iterations to a total energy of -1676.8614 eV
 Calculation parallelised over 64 processes.
 Data is distributed by G-vector(2-way) and k-point(32-way)

 ************************************ Title ************************************
 

 ***************************** General Parameters ******************************
  
 output verbosity                               : normal  (1)
 write checkpoint data to                       : CuVac.check
 type of calculation                            : transition state search
 stress calculation                             : off
 density difference calculation                 : off
 electron localisation func (ELF) calculation   : off
 Hirshfeld analysis                             : off
 polarisation (Berry phase) analysis            : off
 molecular orbital projected DOS                : off
 deltaSCF calculation                           : off
 unlimited duration calculation
 timing information                             : on
 memory usage estimate                          : on
 write extra output files                       : on
 write final potential to formatted file        : off
 write final density to formatted file          : off
 write structure in CELL formatted file         : on
 write BibTeX reference list                    : on
 write OTFG pseudopotential files               : on
 write electrostatic potential file             : on
 write bands file                               : on
 checkpoint writing                             : both castep_bin and check files
  
 output         length unit                     : A
 output           mass unit                     : amu
 output           time unit                     : ps
 output         charge unit                     : e
 output           spin unit                     : hbar/2
 output         energy unit                     : eV
 output          force unit                     : eV/A
 output       velocity unit                     : A/ps
 output       pressure unit                     : GPa
 output     inv_length unit                     : 1/A
 output      frequency unit                     : cm-1
 output force constant unit                     : eV/A**2
 output         volume unit                     : A**3
 output   IR intensity unit                     : (D/A)**2/amu
 output         dipole unit                     : D
 output         efield unit                     : eV/A/e
 output        entropy unit                     : J/mol/K
 output    efield chi2 unit                     : pm/V
  
 wavefunctions paging                           : none
 random number generator seed                   : randomised (123537279)
 data distribution                              : optimal for this architecture
 optimization strategy                          : balance speed and memory

 *********************** Exchange-Correlation Parameters ***********************
  
 using functional                               : Perdew Burke Ernzerhof
 relativistic treatment                         : Koelling-Harmon
 DFT+D: Semi-empirical dispersion correction    : off

 ************************* Pseudopotential Parameters **************************
  
 pseudopotential representation                 : reciprocal space
 <beta|phi> representation                      : reciprocal space
 spin-orbit coupling                            : off

 **************************** Basis Set Parameters *****************************
  
 plane wave basis set cut-off                   :   500.0000   eV
 size of standard grid                          :     1.7500
 size of   fine   gmax                          :    20.0476   1/A
 finite basis set correction                    : none

 **************************** Electronic Parameters ****************************
  
 number of  electrons                           :  341.0    
 net charge of system                           :  0.000    
 net spin   of system                           :  1.000    
 number of  up  spins                           :  171.0    
 number of down spins                           :  170.0    
 treating system as spin-polarized
 number of bands                                :        205

 ********************* Electronic Minimization Parameters **********************
  
 Method: Treating system as metallic with density mixing treatment of electrons,
         and number of  SD  steps               :          1
         and number of  CG  steps               :          4
  
 total energy / atom convergence tol.           : 0.1000E-04   eV
 eigen-energy convergence tolerance             : 0.1000E-05   eV
 max force / atom convergence tol.              : ignored
 convergence tolerance window                   :          3   cycles
 max. number of SCF cycles                      :        200
 number of fixed-spin iterations                :         10
 smearing scheme                                : Gaussian
 smearing width                                 : 0.2000       eV
 Fermi energy convergence tolerance             : 0.2721E-13   eV
 periodic dipole correction                     : NONE

 ************************** Density Mixing Parameters **************************
  
 density-mixing scheme                          : Broyden
 max. length of mixing history                  :         20
 charge density mixing amplitude                : 0.5000    
   spin density mixing amplitude                :  2.000    
 cut-off energy for mixing                      :  500.0       eV

 *********************** Population Analysis Parameters ************************
  
 Population analysis with cutoff                :  3.000       A
 Population analysis output                     : summary and pdos components

 ********************* Transition State Search Parameters **********************
  
 search method                                  : NEB   
 max. ionic |force| tolerance                   : 0.5000E-01   eV/A
 max. ionic |displacement| tolerance            : 0.1000E-02   A
 max. ionic |energy| tolerance                  : 0.2000E-04   eV
 NEB method                                     : ODE12R    
 max. number of NEB iterations                  :        100
 max. number of path points                     :         11
 inter-bead spring constant                     : 0.1000       eV/A**2
 tangent mode                                   : SPLINE    
 central bead is                                : climbing up

 *******************************************************************************
  
 
                           -------------------------------
                                      Unit Cell
                           -------------------------------
        Real Lattice(A)                      Reciprocal Lattice(1/A)
     7.2533590     0.0000000     0.0000000        0.866244909   0.000000000   0.000000000
     0.0000000     7.2533590     0.0000000        0.000000000   0.866244909   0.000000000
     0.0000000     0.0000000     7.2533590        0.000000000   0.000000000   0.866244909
 
                       Lattice parameters(A)       Cell Angles
                    a =      7.253359          alpha =   90.000000
                    b =      7.253359          beta  =   90.000000
                    c =      7.253359          gamma =   90.000000
 
                       Current cell volume =           381.608043       A**3
                                   density =             5.162171   AMU/A**3
                                           =             8.571987     g/cm^3
 
                           -------------------------------
                                     Cell Contents
                           -------------------------------
                         Total number of ions in cell =   31
                      Total number of species in cell =    1
                        Max number of any one species =   31
 
            xxxxxxxxxxxxxxxxxxxxxxxxxxxxxxxxxxxxxxxxxxxxxxxxxxxxxxxxxxxx
            x                          Reactant                        x
            xxxxxxxxxxxxxxxxxxxxxxxxxxxxxxxxxxxxxxxxxxxxxxxxxxxxxxxxxxxx
            x  Element    Atom        Fractional coordinates of atoms  x
            x            Number           u          v          w      x
            x----------------------------------------------------------x
            x  Cu           1        -0.000002   0.000001   0.000000   x 
            x  Cu           2         0.999999   0.250819   0.250805   x 
            x  Cu           3         0.250818   0.999997   0.250809   x 
            x  Cu           4         0.250814   0.250816  -0.000001   x 
            x  Cu           5         0.000002  -0.000003   0.500000   x 
            x  Cu           6         0.999999   0.250819   0.749196   x 
            x  Cu           7         0.250818  -0.000002   0.749191   x 
            x  Cu           8         0.252920   0.252920   0.500000   x 
            x  Cu           9         0.999999   0.499999  -0.000000   x 
            x  Cu          10         1.000004   0.749181   0.250809   x 
            x  Cu          11         0.252916   0.500003   0.252914   x 
            x  Cu          12         0.250813   0.749184   0.000001   x 
            x  Cu          13         1.000003   0.500004   0.500000   x 
            x  Cu          14         1.000003   0.749181   0.749191   x 
            x  Cu          15         0.252916   0.500002   0.747085   x 
            x  Cu          16         0.252919   0.747080   0.500000   x 
            x  Cu          17         0.500002   0.000002   1.000001   x 
            x  Cu          18         0.500001   0.252916   0.252911   x 
            x  Cu          19         0.749182   0.000001   0.250804   x 
            x  Cu          20         0.749186   0.250815  -0.000000   x 
            x  Cu          21         0.499997  -0.000002   0.500000   x 
            x  Cu          22         0.500002   0.252917   0.747088   x 
            x  Cu          23         0.749182   0.000002   0.749195   x 
            x  Cu          24         0.747080   0.252919   0.500000   x 
            x  Cu          25         0.500001   0.499998   0.000000   x 
            x  Cu          26         0.499997   0.747083   0.252916   x 
            x  Cu          27         0.747084   0.499999   0.252910   x 
            x  Cu          28         0.749187   0.749186   0.000001   x 
            x  Cu          29         0.499997   0.747083   0.747084   x 
            x  Cu          30         0.747084   0.499998   0.747090   x 
            x  Cu          31         0.747081   0.747081   0.500000   x 
            xxxxxxxxxxxxxxxxxxxxxxxxxxxxxxxxxxxxxxxxxxxxxxxxxxxxxxxxxxxx
 
            xxxxxxxxxxxxxxxxxxxxxxxxxxxxxxxxxxxxxxxxxxxxxxxxxxxxxxxxxxxx
            x                          Product                         x
            xxxxxxxxxxxxxxxxxxxxxxxxxxxxxxxxxxxxxxxxxxxxxxxxxxxxxxxxxxxx
            x  Element    Atom        Fractional coordinates of atoms  x
            x            Number           u          v          w      x
            x----------------------------------------------------------x
            x  Cu           1         0.000827   0.000827   0.000000   x 
            x  Cu           2         0.002895   0.249953   0.252848   x 
            x  Cu           3         0.249953   0.002895   0.252848   x 
            x  Cu           4         0.249953   0.249953   0.999951   x 
            x  Cu           5         0.002895   0.002895   0.500044   x 
            x  Cu           6         0.002895   0.249953   0.747102   x 
            x  Cu           7         0.249953   0.002895   0.747102   x 
            x  Cu           8         0.497149   0.497149   0.500044   x 
            x  Cu           9         0.000827   0.499217   0.000000   x 
            x  Cu          10         0.000827   0.749997   0.250780   x 
            x  Cu          11         0.249953   0.497149   0.252848   x 
            x  Cu          12         0.249953   0.749997   0.000000   x 
            x  Cu          13         0.002895   0.497149   0.500044   x 
            x  Cu          14         0.000827   0.749997   0.749170   x 
            x  Cu          15         0.249953   0.497149   0.747102   x 
            x  Cu          16         0.249953   0.749997   0.500044   x 
            x  Cu          17         0.499217   0.000827   0.000000   x 
            x  Cu          18         0.497149   0.249953   0.252848   x 
            x  Cu          19         0.749997   0.000827   0.250780   x 
            x  Cu          20         0.749997   0.249953   0.999951   x 
            x  Cu          21         0.497149   0.002895   0.500044   x 
            x  Cu          22         0.497149   0.249953   0.747102   x 
            x  Cu          23         0.749997   0.000827   0.749170   x 
            x  Cu          24         0.749997   0.249953   0.500044   x 
            x  Cu          25         0.499217   0.499217   0.000000   x 
            x  Cu          26         0.499217   0.749997   0.250780   x 
            x  Cu          27         0.749997   0.499217   0.250780   x 
            x  Cu          28         0.749997   0.749997   0.000000   x 
            x  Cu          29         0.499217   0.749997   0.749170   x 
            x  Cu          30         0.749997   0.499217   0.749170   x 
            x  Cu          31         0.749997   0.749997   0.500044   x 
            xxxxxxxxxxxxxxxxxxxxxxxxxxxxxxxxxxxxxxxxxxxxxxxxxxxxxxxxxxxx
 
 
                         No user defined ionic velocities
 
                           -------------------------------
                                   Details of Species
                           -------------------------------
 
                               Mass of species in AMU
                                    Cu   63.5460000
 
                          Electric Quadrupole Moment (Barn)
                                    Cu   -0.2200000 Isotope 63
 
                          Files used for pseudopotentials:
                                    Cu 3|2.2|2.0|1.0|10|12|13|40:41:32(qc=6)
 
                           -------------------------------
                              k-Points For BZ Sampling
                           -------------------------------
                       MP grid size for SCF calculation is  4  4  4
                            with an offset of   0.000  0.000  0.000
                       Number of kpoints used =            32
 
                           -------------------------------
                               Symmetry and Constraints
                           -------------------------------
 
                      Maximum deviation from symmetry =  0.00000         ANG
 
                      Number of symmetry operations   =           1
         There are no ionic constraints specified or generated for this cell
                      Point group of crystal =     1: C1, 1, 1
                      Space group of crystal =   221: Pm-3m, -P 4 2 3
 
             Set iprint > 1 for details on symmetry rotations/translations
 
                         Centre of mass is NOT constrained
 
                         Number of cell constraints= 0
                         Cell constraints are:  1 2 3 4 5 6
 
                         External pressure/stress (GPa)
                          0.00000   0.00000   0.00000
                                    0.00000   0.00000
                                              0.00000
  
+---------------- MEMORY AND SCRATCH DISK ESTIMATES PER PROCESS --------------+
|                                                     Memory          Disk    |
| Baseline code, static data and system overhead      538.0 MB         0.0 MB |
| BLAS internal memory storage                          0.0 MB         0.0 MB |
| Model and support data                              175.5 MB       147.5 MB |
| Electronic energy minimisation requirements         134.9 MB         0.0 MB |
| Force calculation requirements                       12.6 MB         0.0 MB |
|                                               ----------------------------- |
| Approx. total storage required per process          848.4 MB       147.5 MB |
|                                                                             |
| Requirements will fluctuate during execution and may exceed these estimates |
+-----------------------------------------------------------------------------+
Calculating approximate eigenstates for fixed initial Hamiltonian
Cut-off for approx. calculation is   89.988 eV
Improving approx. states at cut-off of  272.114 eV
Resetting cut-off to  500.000 eV
Calculating total energy with cut-off of  500.000 eV.
------------------------------------------------------------------------ <-- SCF
SCF loop      Energy           Fermi           Energy gain       Timer   <-- SCF
                               energy          per atom          (sec)   <-- SCF
------------------------------------------------------------------------ <-- SCF
Initial  -5.30523546E+004  0.00000000E+000                        36.04  <-- SCF
      1  -5.21055673E+004  4.22554478E+000  -3.05415249E+001      49.60  <-- SCF
      2  -5.21074225E+004  4.28503526E+000   5.98440948E-002      68.73  <-- SCF
      3  -5.21079519E+004  4.30070615E+000   1.70796996E-002      81.80  <-- SCF
      4  -5.21078972E+004  4.17402609E+000  -1.76565370E-003      93.50  <-- SCF
      5  -5.21077525E+004  4.16591046E+000  -4.66879319E-003     104.99  <-- SCF
      6  -5.21077610E+004  4.19559473E+000   2.76644988E-004     116.64  <-- SCF
      7  -5.21077291E+004  4.18897715E+000  -1.02981756E-003     128.12  <-- SCF
      8  -5.21077280E+004  4.18480269E+000  -3.48432816E-005     140.02  <-- SCF
      9  -5.21077278E+004  4.18585199E+000  -7.45584890E-006     155.97  <-- SCF
     10  -5.21077614E+004  4.18442211E+000   1.08282633E-003     169.17  <-- SCF
     11  -5.21077625E+004  4.18537368E+000   3.49729699E-005     180.83  <-- SCF
     12  -5.21077671E+004  4.18489378E+000   1.48577439E-004     191.72  <-- SCF
     13  -5.21077671E+004  4.18497758E+000   9.20437383E-007     200.99  <-- SCF
     14  -5.21077671E+004  4.18495048E+000   2.25286211E-007     211.64  <-- SCF
------------------------------------------------------------------------ <-- SCF
 
Integrated Spin Density     =   -0.285078E-02 hbar/2                        
Integrated |Spin Density|   =    0.116292E-01 hbar/2                        
 
Final energy, E             =  -52107.55424540     eV
Final free energy (E-TS)    =  -52107.76709508     eV
(energies not corrected for finite basis set)
 
NB est. 0K energy (E-0.5TS)      =  -52107.66067024     eV
 

Writing analysis data to CuVac.castep_bin

Writing model to CuVac.check
++++++++++++++++++++++++++++++++++++++++++++++++++++++++++++++++++++++++++++++++
+++++++++++++++++++++++ Starting Transition State Search +++++++++++++++++++++++
++++++++++++++++++++++++++++++++++++++++++++++++++++++++++++++++++++++++++++++++
 
 =====================================================================
 |                                                                   |
 |                  Nudged Elastic Band optimization                 |
 |                                                                   |
 =====================================================================

     NEB elastic constant:      0.001029 Hartree/Bohr^2
Optimisation algorithm:     ode12r                                                                                                                                                                                                                                                          
Tangent mode:     Spline interpolation                                                                                                                                                                                                                                            
 Number of task farms to use:           1
  --- Initialising NEB constraints ---
     Fixed            0  degrees of freedom
     Using            0  Lagrange multipliers
 
Using climbing image:        6
 Reactant structure energy:   -52107.7670993283       eV
 Product structure energy:   -52107.7671219611       eV
 
 *********************** 
     Iteration:     1

 *********************** 
 *********************** 
     Iteration:     2
         Max Force Component:             0.638518 eV/Ang (0)
         Max Displacement Component:      0.168533 Ang (0)

 *********************** 
  Saving model to checkpoint file...

Writing analysis data to CuVac.castep_bin

Writing model to CuVac.check
 *********************** 
     Iteration:     3
         Max Force Component:             0.250129 eV/Ang (0)
         Max Displacement Component:      0.035417 Ang (0)

 *********************** 
 *********************** 
     Iteration:     4
         Max Force Component:             0.134985 eV/Ang (0)
         Max Displacement Component:      0.019025 Ang (0)

 *********************** 
  Saving model to checkpoint file...

Writing analysis data to CuVac.castep_bin

Writing model to CuVac.check
 *********************** 
     Iteration:     5
         Max Force Component:             0.076767 eV/Ang (0)
         Max Displacement Component:      0.014769 Ang (0)

 *********************** 
 *********************** 
     Iteration:     6
         Max Force Component:             0.062567 eV/Ang (0)
         Max Displacement Component:      0.015851 Ang (0)

 *********************** 
  Saving model to checkpoint file...

Writing analysis data to CuVac.castep_bin

Writing model to CuVac.check
 *********************** 
     Iteration:     7
         Max Force Component:             0.049991 eV/Ang (1)
         Max Displacement Component:      0.014462 Ang (0)

 *********************** 
 *********************** 
     Iteration:     8
         Max Force Component:             0.051055 eV/Ang (0)
         Max Displacement Component:      0.007652 Ang (0)

 *********************** 
  Saving model to checkpoint file...

Writing analysis data to CuVac.castep_bin

Writing model to CuVac.check
 *********************** 
     Iteration:     9
         Max Force Component:             0.049229 eV/Ang (1)
         Max Displacement Component:      0.003928 Ang (0)

 *********************** 
 *********************** 
     Iteration:    10
         Max Force Component:             0.052923 eV/Ang (0)
         Max Displacement Component:      0.002876 Ang (0)

 *********************** 
  Saving model to checkpoint file...

Writing analysis data to CuVac.castep_bin

Writing model to CuVac.check
 *********************** 
     Iteration:    11
         Max Force Component:             0.051520 eV/Ang (0)
         Max Displacement Component:      0.002121 Ang (0)

 *********************** 
 *********************** 
     Iteration:    12
         Max Force Component:             0.053617 eV/Ang (0)
         Max Displacement Component:      0.001308 Ang (0)

 *********************** 
  Saving model to checkpoint file...

Writing analysis data to CuVac.castep_bin

Writing model to CuVac.check
 *********************** 
     Iteration:    13
         Max Force Component:             0.052361 eV/Ang (0)
         Max Displacement Component:      0.000950 Ang (1)

 *********************** 
 *********************** 
     Iteration:    14
         Max Force Component:             0.053922 eV/Ang (0)
         Max Displacement Component:      0.000450 Ang (2)

 *********************** 
  Saving model to checkpoint file...

Writing analysis data to CuVac.castep_bin

Writing model to CuVac.check
 *********************** 
     Iteration:    15
         Max Force Component:             0.052631 eV/Ang (0)
         Max Displacement Component:      0.000237 Ang (3)

 *********************** 
 *********************** 
     Iteration:    16
         Max Force Component:             0.054001 eV/Ang (0)
         Max Displacement Component:      0.000104 Ang (4)

 *********************** 
  Saving model to checkpoint file...

Writing analysis data to CuVac.castep_bin

Writing model to CuVac.check
 *********************** 
     Iteration:    17
         Max Force Component:             0.052695 eV/Ang (0)
         Max Displacement Component:      0.000057 Ang (5)

 *********************** 
 *********************** 
     Iteration:    18
         Max Force Component:             0.054018 eV/Ang (0)
         Max Displacement Component:      0.000025 Ang (6)

 *********************** 
  Saving model to checkpoint file...

Writing analysis data to CuVac.castep_bin

Writing model to CuVac.check
 *********************** 
     Iteration:    19
         Max Force Component:             0.052712 eV/Ang (0)
         Max Displacement Component:      0.000013 Ang (7)

 *********************** 
 *********************** 
     Iteration:    20
         Max Force Component:             0.054025 eV/Ang (0)
         Max Displacement Component:      0.000006 Ang (8)

 *********************** 
  Saving model to checkpoint file...

Writing analysis data to CuVac.castep_bin

Writing model to CuVac.check
 *********************** 
     Iteration:    21
         Max Force Component:             0.052713 eV/Ang (0)
         Max Displacement Component:      0.000003 Ang (9)

 *********************** 
 *********************** 
     Iteration:    22
         Max Force Component:             0.054026 eV/Ang (0)
         Max Displacement Component:      0.000001 Ang (*)

 *********************** 
  Saving model to checkpoint file...

Writing analysis data to CuVac.castep_bin

Writing model to CuVac.check
 *********************** 
     Iteration:    23
         Max Force Component:             0.052714 eV/Ang (0)
         Max Displacement Component:      0.000001 Ang (*)

 *********************** 
 *********************** 
     Iteration:    24
         Max Force Component:             0.054025 eV/Ang (0)
         Max Displacement Component:      0.000000 Ang (*)

 *********************** 
  Saving model to checkpoint file...

Writing analysis data to CuVac.castep_bin

Writing model to CuVac.check
 *********************** 
     Iteration:    25
         Max Force Component:             0.052713 eV/Ang (0)
         Max Displacement Component:      0.000000 Ang (*)

 *********************** 
 *********************** 
     Iteration:    26
         Max Force Component:             0.054025 eV/Ang (0)
         Max Displacement Component:      0.000000 Ang (*)

 *********************** 
  Saving model to checkpoint file...

Writing analysis data to CuVac.castep_bin

Writing model to CuVac.check
 *********************** 
     Iteration:    27
         Max Force Component:             0.052715 eV/Ang (0)
         Max Displacement Component:      0.000000 Ang (*)

 *********************** 
 *********************** 
     Iteration:    28
         Max Force Component:             0.054026 eV/Ang (0)
         Max Displacement Component:      0.000000 Ang (*)

 *********************** 
  Saving model to checkpoint file...

Writing analysis data to CuVac.castep_bin

Writing model to CuVac.check
 *********************** 
     Iteration:    29
         Max Force Component:             0.052715 eV/Ang (0)
         Max Displacement Component:      0.000000 Ang (*)

 *********************** 
 *********************** 
     Iteration:    30
         Max Force Component:             0.054028 eV/Ang (0)
         Max Displacement Component:      0.000000 Ang (*)

 *********************** 
  Saving model to checkpoint file...

Writing analysis data to CuVac.castep_bin

Writing model to CuVac.check
 *********************** 
     Iteration:    31
         Max Force Component:             0.052713 eV/Ang (0)
         Max Displacement Component:      0.000000 Ang (*)

 *********************** 
 *********************** 
     Iteration:    32
         Max Force Component:             0.054024 eV/Ang (0)
         Max Displacement Component:      0.000000 Ang (*)

 *********************** 
  Saving model to checkpoint file...

Writing analysis data to CuVac.castep_bin

Writing model to CuVac.check
 *********************** 
     Iteration:    33
         Max Force Component:             0.052714 eV/Ang (0)
         Max Displacement Component:      0.000000 Ang (*)

 *********************** 
 *********************** 
     Iteration:    34
         Max Force Component:             0.054025 eV/Ang (0)
         Max Displacement Component:      0.000000 Ang (*)

 *********************** 
  Saving model to checkpoint file...

Writing analysis data to CuVac.castep_bin

Writing model to CuVac.check
 *********************** 
     Iteration:    35
         Max Force Component:             0.052714 eV/Ang (0)
         Max Displacement Component:      0.000000 Ang (*)

 *********************** 
 *********************** 
     Iteration:    36
         Max Force Component:             0.054028 eV/Ang (0)
         Max Displacement Component:      0.000000 Ang (*)

 *********************** 
  Saving model to checkpoint file...

Writing analysis data to CuVac.castep_bin

Writing model to CuVac.check
 *********************** 
     Iteration:    37
         Max Force Component:             0.052714 eV/Ang (0)
         Max Displacement Component:      0.000000 Ang (*)

 *********************** 
 *********************** 
     Iteration:    38
         Max Force Component:             0.054026 eV/Ang (0)
         Max Displacement Component:      0.000000 Ang (*)

 *********************** 
  Saving model to checkpoint file...

Writing analysis data to CuVac.castep_bin

Writing model to CuVac.check
 *********************** 
     Iteration:    39
         Max Force Component:             0.052713 eV/Ang (0)
         Max Displacement Component:      0.000000 Ang (*)

 *********************** 
 *********************** 
     Iteration:    40
         Max Force Component:             0.054025 eV/Ang (0)
         Max Displacement Component:      0.000000 Ang (*)

 *********************** 
  Saving model to checkpoint file...

Writing analysis data to CuVac.castep_bin

Writing model to CuVac.check
 *********************** 
     Iteration:    41
         Max Force Component:             0.052716 eV/Ang (0)
         Max Displacement Component:      0.000000 Ang (*)

 *********************** 
 *********************** 
     Iteration:    42
         Max Force Component:             0.054025 eV/Ang (0)
         Max Displacement Component:      0.000000 Ang (*)

 *********************** 
  Saving model to checkpoint file...

Writing analysis data to CuVac.castep_bin

Writing model to CuVac.check
 *********************** 
     Iteration:    43
         Max Force Component:             0.052713 eV/Ang (0)
         Max Displacement Component:      0.000000 Ang (*)

 *********************** 
 *********************** 
     Iteration:    44
         Max Force Component:             0.054025 eV/Ang (0)
         Max Displacement Component:      0.000000 Ang (*)

 *********************** 
  Saving model to checkpoint file...

Writing analysis data to CuVac.castep_bin

Writing model to CuVac.check
 *********************** 
     Iteration:    45
         Max Force Component:             0.052714 eV/Ang (0)
         Max Displacement Component:      0.000000 Ang (*)

 *********************** 
 *********************** 
     Iteration:    46
         Max Force Component:             0.054025 eV/Ang (0)
         Max Displacement Component:      0.000000 Ang (*)

 *********************** 
  Saving model to checkpoint file...

Writing analysis data to CuVac.castep_bin

Writing model to CuVac.check
 *********************** 
     Iteration:    47
         Max Force Component:             0.052715 eV/Ang (0)
         Max Displacement Component:      0.000000 Ang (*)

 *********************** 
