 +-------------------------------------------------+
 |                                                 |
 |      CCC   AA    SSS  TTTTT  EEEEE  PPPP        |
 |     C     A  A  S       T    E      P   P       |
 |     C     AAAA   SS     T    EEE    PPPP        |
 |     C     A  A     S    T    E      P           |
 |      CCC  A  A  SSS     T    EEEEE  P           |
 |                                                 |
 +-------------------------------------------------+
 |                                                 |
 | Welcome to Academic Release CASTEP version 22.1 |          
 | Ab Initio Total Energy Program                  |
 |                                                 |
 | Authors:                                        |
 | M. Segall, M. Probert, C. Pickard, P. Hasnip,   |
 | S. Clark, K. Refson, J. R. Yates, M. Payne      |
 |                                                 |
 | Contributors:                                   |
 | P. Lindan, P. Haynes, J. White, V. Milman,      |
 | N. Govind, M. Gibson, P. Tulip, V. Cocula,      |
 | B. Montanari, D. Quigley, M. Glover,            |
 | L. Bernasconi, A. Perlov, M. Plummer,           |
 | E. McNellis, J. Meyer, J. Gale, D. Jochym       |
 | J. Aarons, B. Walker, R. Gillen, D. Jones       |
 | T. Green, I. J. Bush, C. J. Armstrong,          |
 | E. J. Higgins, E. L. Brown, M. S. McFly,        |
 | J. Wilkins, B-C. Shih, P. J. P. Byrne,          |
 | R. J. Maurer, J. C. Womack, J. Dziedzic,        |
 | A. Bartok-Partay, L. LeBlanc, T. K. Stenczel,   |
 | J. Kermode, S. Sturniolo                        |
 |                                                 |
 | Copyright (c) 2000 - 2021                       |
 |                                                 |
 |     Distributed under license from Cambridge    |
 |     Enterprise for academic use only.           |
 |                                                 |
 | Please cite                                     |
 |                                                 |
 |     "First principles methods using CASTEP"     |
 |                                                 |
 |         Zeitschrift fuer Kristallographie       |
 |           220(5-6) pp. 567-570 (2005)           |
 |                                                 |
 | S. J. Clark, M. D. Segall, C. J. Pickard,       |
 | P. J. Hasnip, M. J. Probert, K. Refson,         |
 | M. C. Payne                                     |
 |                                                 |
 |       in all publications arising from          |
 |              your use of CASTEP                 |
 |                                                 |
 +-------------------------------------------------+
 |                                                 |
 |              http://www.castep.org              |
 |                                                 |
 +-------------------------------------------------+
 
 
 
 Compiled for linux_x86_64_cray-XT on Thu, 18 Nov 2021 16:26:02 +0000
 from code version cb551d6e8+  new-neb-implementation  Wed Nov 17 12:19:37 2021 +00
 Compiler: Cray Fortran 10.0.4; Optimisation: fast
 MATHLIBS: LibSci (LAPACK version 3.6.1)
 FFT Lib : default
 Fundamental constants values: CODATA 2014
 
 Run started: Tue, 30 Nov 2021 10:54:35 +0000
 
 Atomic calculation performed for Cu: 1s2 2s2 2p6 3s2 3p6 3d10 4s1
 
 Converged in 144 iterations to an ae energy of -45030.712 eV
 
   ============================================================                
   | Pseudopotential Report - Date of generation 30-11-2021   |                
   ------------------------------------------------------------                
   | Element: Cu Ionic charge: 11.00 Level of theory: PBE     |                
   | Atomic Solver: Koelling-Harmon                           |                
   |                                                          |                
   |               Reference Electronic Structure             |                
   |         Orbital         Occupation         Energy        |                
   |            3d             10.000           -0.185        |                
   |            4s              1.000           -0.169        |                
   |                                                          |                
   |                 Pseudopotential Definition               |                
   |        Beta     l      e      Rc     scheme   norm       |                
   |          1      0   -0.169   1.996     qc      0         |                
   |          2      0    0.250   1.996     qc      0         |                
   |          3      1    0.000   1.996     qc      0         |                
   |          4      1    0.250   1.996     qc      0         |                
   |          5      2   -0.185   1.996     qc      0         |                
   |          6      2    0.250   1.996     qc      0         |                
   |         loc     3    0.000   2.206     pn      0         |                
   |                                                          |                
   | Augmentation charge Rinner = 0.999                       |                
   | Partial core correction Rc = 0.999                       |                
   ------------------------------------------------------------                
   | "3|2.2|2.0|1.0|10|12|13|40:41:32(qc=6)"                  |                
   ------------------------------------------------------------                
   |      Author: Chris J. Pickard, Cambridge University      |                
   ============================================================                
 
 Pseudo atomic calculation performed for Cu 3d10 4s1
 
 Converged in 49 iterations to a total energy of -1676.8614 eV
 Calculation parallelised over 128 processes.
 Data is distributed by G-vector(4-way) and k-point(32-way)

 ************************************ Title ************************************
 

 ***************************** General Parameters ******************************
  
 output verbosity                               : normal  (1)
 write checkpoint data to                       : CuVac.check
 type of calculation                            : transition state search
 stress calculation                             : off
 density difference calculation                 : off
 electron localisation func (ELF) calculation   : off
 Hirshfeld analysis                             : off
 polarisation (Berry phase) analysis            : off
 molecular orbital projected DOS                : off
 deltaSCF calculation                           : off
 unlimited duration calculation
 timing information                             : on
 memory usage estimate                          : on
 write extra output files                       : on
 write final potential to formatted file        : off
 write final density to formatted file          : off
 write structure in CELL formatted file         : on
 write BibTeX reference list                    : on
 write OTFG pseudopotential files               : on
 write electrostatic potential file             : on
 write bands file                               : on
 checkpoint writing                             : both castep_bin and check files
  
 output         length unit                     : A
 output           mass unit                     : amu
 output           time unit                     : ps
 output         charge unit                     : e
 output           spin unit                     : hbar/2
 output         energy unit                     : eV
 output          force unit                     : eV/A
 output       velocity unit                     : A/ps
 output       pressure unit                     : GPa
 output     inv_length unit                     : 1/A
 output      frequency unit                     : cm-1
 output force constant unit                     : eV/A**2
 output         volume unit                     : A**3
 output   IR intensity unit                     : (D/A)**2/amu
 output         dipole unit                     : D
 output         efield unit                     : eV/A/e
 output        entropy unit                     : J/mol/K
 output    efield chi2 unit                     : pm/V
  
 wavefunctions paging                           : none
 random number generator seed                   : randomised (105438332)
 data distribution                              : optimal for this architecture
 optimization strategy                          : balance speed and memory

 *********************** Exchange-Correlation Parameters ***********************
  
 using functional                               : Perdew Burke Ernzerhof
 relativistic treatment                         : Koelling-Harmon
 DFT+D: Semi-empirical dispersion correction    : off

 ************************* Pseudopotential Parameters **************************
  
 pseudopotential representation                 : reciprocal space
 <beta|phi> representation                      : reciprocal space
 spin-orbit coupling                            : off

 **************************** Basis Set Parameters *****************************
  
 plane wave basis set cut-off                   :   500.0000   eV
 size of standard grid                          :     1.7500
 size of   fine   gmax                          :    20.0476   1/A
 finite basis set correction                    : none

 **************************** Electronic Parameters ****************************
  
 number of  electrons                           :  341.0    
 net charge of system                           :  0.000    
 net spin   of system                           :  1.000    
 number of  up  spins                           :  171.0    
 number of down spins                           :  170.0    
 treating system as spin-polarized
 number of bands                                :        205

 ********************* Electronic Minimization Parameters **********************
  
 Method: Treating system as metallic with density mixing treatment of electrons,
         and number of  SD  steps               :          1
         and number of  CG  steps               :          4
  
 total energy / atom convergence tol.           : 0.1000E-04   eV
 eigen-energy convergence tolerance             : 0.1000E-05   eV
 max force / atom convergence tol.              : ignored
 convergence tolerance window                   :          3   cycles
 max. number of SCF cycles                      :        200
 number of fixed-spin iterations                :         10
 smearing scheme                                : Gaussian
 smearing width                                 : 0.2000       eV
 Fermi energy convergence tolerance             : 0.2721E-13   eV
 periodic dipole correction                     : NONE

 ************************** Density Mixing Parameters **************************
  
 density-mixing scheme                          : Broyden
 max. length of mixing history                  :         20
 charge density mixing amplitude                : 0.5000    
   spin density mixing amplitude                :  2.000    
 cut-off energy for mixing                      :  500.0       eV

 *********************** Population Analysis Parameters ************************
  
 Population analysis with cutoff                :  3.000       A
 Population analysis output                     : summary and pdos components

 ********************* Transition State Search Parameters **********************
  
 search method                                  : NEB   
 max. ionic |force| tolerance                   : 0.5000E-01   eV/A
 max. ionic |displacement| tolerance            : 0.1000E-02   A
 max. ionic |energy| tolerance                  : 0.2000E-04   eV
 NEB method                                     : ODE12R    
 max. number of NEB iterations                  :        100
 max. number of path points                     :         11
 inter-bead spring constant                     : 0.1000E+00   eV/A**2
 tangent mode                                   : SPLINE    
 central bead is                                : climbing up

 *******************************************************************************
  
 
                           -------------------------------
                                      Unit Cell
                           -------------------------------
        Real Lattice(A)                      Reciprocal Lattice(1/A)
     7.2533590     0.0000000     0.0000000        0.866244909   0.000000000   0.000000000
     0.0000000     7.2533590     0.0000000        0.000000000   0.866244909   0.000000000
     0.0000000     0.0000000     7.2533590        0.000000000   0.000000000   0.866244909
 
                       Lattice parameters(A)       Cell Angles
                    a =      7.253359          alpha =   90.000000
                    b =      7.253359          beta  =   90.000000
                    c =      7.253359          gamma =   90.000000
 
                       Current cell volume =           381.608043       A**3
                                   density =             5.162171   AMU/A**3
                                           =             8.571987     g/cm^3
 
                           -------------------------------
                                     Cell Contents
                           -------------------------------
                         Total number of ions in cell =   31
                      Total number of species in cell =    1
                        Max number of any one species =   31
 
            xxxxxxxxxxxxxxxxxxxxxxxxxxxxxxxxxxxxxxxxxxxxxxxxxxxxxxxxxxxx
            x                          Reactant                        x
            xxxxxxxxxxxxxxxxxxxxxxxxxxxxxxxxxxxxxxxxxxxxxxxxxxxxxxxxxxxx
            x  Element    Atom        Fractional coordinates of atoms  x
            x            Number           u          v          w      x
            x----------------------------------------------------------x
            x  Cu           1        -0.000002   0.000001   0.000000   x 
            x  Cu           2         0.999999   0.250819   0.250805   x 
            x  Cu           3         0.250818   0.999997   0.250809   x 
            x  Cu           4         0.250814   0.250816  -0.000001   x 
            x  Cu           5         0.000002  -0.000003   0.500000   x 
            x  Cu           6         0.999999   0.250819   0.749196   x 
            x  Cu           7         0.250818  -0.000002   0.749191   x 
            x  Cu           8         0.252920   0.252920   0.500000   x 
            x  Cu           9         0.999999   0.499999  -0.000000   x 
            x  Cu          10         1.000004   0.749181   0.250809   x 
            x  Cu          11         0.252916   0.500003   0.252914   x 
            x  Cu          12         0.250813   0.749184   0.000001   x 
            x  Cu          13         1.000003   0.500004   0.500000   x 
            x  Cu          14         1.000003   0.749181   0.749191   x 
            x  Cu          15         0.252916   0.500002   0.747085   x 
            x  Cu          16         0.252919   0.747080   0.500000   x 
            x  Cu          17         0.500002   0.000002   1.000001   x 
            x  Cu          18         0.500001   0.252916   0.252911   x 
            x  Cu          19         0.749182   0.000001   0.250804   x 
            x  Cu          20         0.749186   0.250815  -0.000000   x 
            x  Cu          21         0.499997  -0.000002   0.500000   x 
            x  Cu          22         0.500002   0.252917   0.747088   x 
            x  Cu          23         0.749182   0.000002   0.749195   x 
            x  Cu          24         0.747080   0.252919   0.500000   x 
            x  Cu          25         0.500001   0.499998   0.000000   x 
            x  Cu          26         0.499997   0.747083   0.252916   x 
            x  Cu          27         0.747084   0.499999   0.252910   x 
            x  Cu          28         0.749187   0.749186   0.000001   x 
            x  Cu          29         0.499997   0.747083   0.747084   x 
            x  Cu          30         0.747084   0.499998   0.747090   x 
            x  Cu          31         0.747081   0.747081   0.500000   x 
            xxxxxxxxxxxxxxxxxxxxxxxxxxxxxxxxxxxxxxxxxxxxxxxxxxxxxxxxxxxx
 
            xxxxxxxxxxxxxxxxxxxxxxxxxxxxxxxxxxxxxxxxxxxxxxxxxxxxxxxxxxxx
            x                          Product                         x
            xxxxxxxxxxxxxxxxxxxxxxxxxxxxxxxxxxxxxxxxxxxxxxxxxxxxxxxxxxxx
            x  Element    Atom        Fractional coordinates of atoms  x
            x            Number           u          v          w      x
            x----------------------------------------------------------x
            x  Cu           1         0.000827   0.000827   0.000000   x 
            x  Cu           2         0.002895   0.249953   0.252848   x 
            x  Cu           3         0.249953   0.002895   0.252848   x 
            x  Cu           4         0.249953   0.249953   0.999951   x 
            x  Cu           5         0.002895   0.002895   0.500044   x 
            x  Cu           6         0.002895   0.249953   0.747102   x 
            x  Cu           7         0.249953   0.002895   0.747102   x 
            x  Cu           8         0.497149   0.497149   0.500044   x 
            x  Cu           9         0.000827   0.499217   0.000000   x 
            x  Cu          10         0.000827   0.749997   0.250780   x 
            x  Cu          11         0.249953   0.497149   0.252848   x 
            x  Cu          12         0.249953   0.749997   0.000000   x 
            x  Cu          13         0.002895   0.497149   0.500044   x 
            x  Cu          14         0.000827   0.749997   0.749170   x 
            x  Cu          15         0.249953   0.497149   0.747102   x 
            x  Cu          16         0.249953   0.749997   0.500044   x 
            x  Cu          17         0.499217   0.000827   0.000000   x 
            x  Cu          18         0.497149   0.249953   0.252848   x 
            x  Cu          19         0.749997   0.000827   0.250780   x 
            x  Cu          20         0.749997   0.249953   0.999951   x 
            x  Cu          21         0.497149   0.002895   0.500044   x 
            x  Cu          22         0.497149   0.249953   0.747102   x 
            x  Cu          23         0.749997   0.000827   0.749170   x 
            x  Cu          24         0.749997   0.249953   0.500044   x 
            x  Cu          25         0.499217   0.499217   0.000000   x 
            x  Cu          26         0.499217   0.749997   0.250780   x 
            x  Cu          27         0.749997   0.499217   0.250780   x 
            x  Cu          28         0.749997   0.749997   0.000000   x 
            x  Cu          29         0.499217   0.749997   0.749170   x 
            x  Cu          30         0.749997   0.499217   0.749170   x 
            x  Cu          31         0.749997   0.749997   0.500044   x 
            xxxxxxxxxxxxxxxxxxxxxxxxxxxxxxxxxxxxxxxxxxxxxxxxxxxxxxxxxxxx
 
 
                         No user defined ionic velocities
 
                           -------------------------------
                                   Details of Species
                           -------------------------------
 
                               Mass of species in AMU
                                    Cu   63.5460000
 
                          Electric Quadrupole Moment (Barn)
                                    Cu   -0.2200000 Isotope 63
 
                          Files used for pseudopotentials:
                                    Cu 3|2.2|2.0|1.0|10|12|13|40:41:32(qc=6)
 
                           -------------------------------
                              k-Points For BZ Sampling
                           -------------------------------
                       MP grid size for SCF calculation is  4  4  4
                            with an offset of   0.000  0.000  0.000
                       Number of kpoints used =   32
 
                           -------------------------------
                               Symmetry and Constraints
                           -------------------------------
 
                      Maximum deviation from symmetry =  0.00000         ANG
 
                      Number of symmetry operations   = 1
         There are no ionic constraints specified or generated for this cell
                      Point group of crystal =     1: C1, 1, 1
                      Space group of crystal =   221: Pm-3m, -P 4 2 3
 
             Set iprint > 1 for details on symmetry rotations/translations
 
                         Centre of mass is NOT constrained
 
                         Number of cell constraints= 0
                         Cell constraints are:  1 2 3 4 5 6
 
                         External pressure/stress (GPa)
                          0.00000   0.00000   0.00000
                                    0.00000   0.00000
                                              0.00000
  
+---------------- MEMORY AND SCRATCH DISK ESTIMATES PER PROCESS --------------+
|                                                     Memory          Disk    |
| Baseline code, static data and system overhead     3286.0 MB         0.0 MB |
| BLAS internal memory storage                          0.0 MB         0.0 MB |
| Model and support data                              130.6 MB        73.9 MB |
| Electronic energy minimisation requirements          68.5 MB         0.0 MB |
| Force calculation requirements                        6.3 MB         0.0 MB |
|                                               ----------------------------- |
| Approx. total storage required per process         3485.1 MB        73.9 MB |
|                                                                             |
| Requirements will fluctuate during execution and may exceed these estimates |
+-----------------------------------------------------------------------------+
Calculating approximate eigenstates for fixed initial Hamiltonian
Cut-off for approx. calculation is  131.752 eV
Improving approx. states at cut-off of  272.114 eV
Resetting cut-off to  500.000 eV
Calculating total energy with cut-off of  500.000 eV.
------------------------------------------------------------------------ <-- SCF
SCF loop      Energy           Fermi           Energy gain       Timer   <-- SCF
                               energy          per atom          (sec)   <-- SCF
------------------------------------------------------------------------ <-- SCF
Initial  -5.30539945E+004  0.00000000E+000                        28.63  <-- SCF
      1  -5.21056647E+004  4.24673388E+000  -3.05912838E+001      40.98  <-- SCF
      2  -5.21072072E+004  4.29711563E+000   4.97586654E-002      53.94  <-- SCF
      3  -5.21079327E+004  4.29187658E+000   2.34043925E-002      63.47  <-- SCF
      4  -5.21078941E+004  4.19403919E+000  -1.24747222E-003      72.88  <-- SCF
      5  -5.21077221E+004  4.17345856E+000  -5.54597719E-003      82.34  <-- SCF
      6  -5.21077121E+004  4.20141836E+000  -3.23785599E-004      92.11  <-- SCF
      7  -5.21076902E+004  4.18586783E+000  -7.05192237E-004     101.57  <-- SCF
      8  -5.21076913E+004  4.18288935E+000   3.39632577E-005     110.97  <-- SCF
      9  -5.21076892E+004  4.18549511E+000  -6.61314376E-005     120.25  <-- SCF
     10  -5.21077238E+004  4.18445347E+000   1.11582664E-003     126.97  <-- SCF
     11  -5.21077249E+004  4.18535721E+000   3.45147450E-005     135.85  <-- SCF
     12  -5.21077295E+004  4.18489079E+000   1.48162783E-004     144.19  <-- SCF
     13  -5.21077295E+004  4.18499649E+000   1.17697630E-006     150.86  <-- SCF
     14  -5.21077295E+004  4.18494945E+000  -3.44560347E-007     157.58  <-- SCF
------------------------------------------------------------------------ <-- SCF
 
Integrated Spin Density     =   -0.358125E-02 hbar/2                        
Integrated |Spin Density|   =    0.121747E-01 hbar/2                        
 
Final energy, E             =  -52107.51666172     eV
Final free energy (E-TS)    =  -52107.72951072     eV
(energies not corrected for finite basis set)
 
NB est. 0K energy (E-0.5TS)      =  -52107.62308622     eV
 

Writing analysis data to CuVac.castep_bin

Writing model to CuVac.check
++++++++++++++++++++++++++++++++++++++++++++++++++++++++++++++++++++++++++++++++
+++++++++++++++++++++++ Starting Transition State Search +++++++++++++++++++++++
++++++++++++++++++++++++++++++++++++++++++++++++++++++++++++++++++++++++++++++++
 
 =====================================================================
 |                                                                   |
 |                  Nudged Elastic Band optimization                 |
 |                                                                   |
 =====================================================================

     NEB elastic constant:      0.001029 Hartree/Bohr^2
Optimisation algorithm:     ode12r                                                                                                                                                                                                                                                          
Tangent mode:     Spline interpolation                                                                                                                                                                                                                                            
 Number of task farms to use: 1
  --- Initialising NEB constraints ---
     Fixed  0  degrees of freedom
     Using  0  Lagrange multipliers
 
Using climbing image:        6
 Reactant structure energy:  -52107.729516430845  eV
 Product structure energy:  -52107.729539217158  eV
 
 *********************** 
     Iteration:     1

 *********************** 
 *********************** 
     Iteration:     2
         Max Force Component:             0.638511 eV/Ang (0)
         Max Displacement Component:      0.168532 Ang (0)

 *********************** 
  Saving model to checkpoint file...

Writing analysis data to CuVac.castep_bin

Writing model to CuVac.check
 *********************** 
     Iteration:     3
         Max Force Component:             0.250129 eV/Ang (0)
         Max Displacement Component:      0.035417 Ang (0)

 *********************** 
 *********************** 
     Iteration:     4
         Max Force Component:             0.134985 eV/Ang (0)
         Max Displacement Component:      0.019025 Ang (0)

 *********************** 
  Saving model to checkpoint file...

Writing analysis data to CuVac.castep_bin

Writing model to CuVac.check
 *********************** 
     Iteration:     5
         Max Force Component:             0.076774 eV/Ang (0)
         Max Displacement Component:      0.014769 Ang (0)

 *********************** 
 *********************** 
     Iteration:     6
         Max Force Component:             0.062568 eV/Ang (0)
         Max Displacement Component:      0.015852 Ang (0)

 *********************** 
  Saving model to checkpoint file...

Writing analysis data to CuVac.castep_bin

Writing model to CuVac.check
 *********************** 
     Iteration:     7
         Max Force Component:             0.049950 eV/Ang (1)
         Max Displacement Component:      0.014462 Ang (0)

 *********************** 
 *********************** 
     Iteration:     8
         Max Force Component:             0.051051 eV/Ang (0)
         Max Displacement Component:      0.007659 Ang (0)

 *********************** 
  Saving model to checkpoint file...

Writing analysis data to CuVac.castep_bin

Writing model to CuVac.check
 *********************** 
     Iteration:     9
         Max Force Component:             0.049226 eV/Ang (1)
         Max Displacement Component:      0.003928 Ang (0)

 *********************** 
 *********************** 
     Iteration:    10
         Max Force Component:             0.052919 eV/Ang (0)
         Max Displacement Component:      0.002875 Ang (0)

 *********************** 
  Saving model to checkpoint file...

Writing analysis data to CuVac.castep_bin

Writing model to CuVac.check
 *********************** 
     Iteration:    11
         Max Force Component:             0.051514 eV/Ang (0)
         Max Displacement Component:      0.002122 Ang (0)

 *********************** 
 *********************** 
     Iteration:    12
         Max Force Component:             0.053616 eV/Ang (0)
         Max Displacement Component:      0.001307 Ang (0)

 *********************** 
  Saving model to checkpoint file...

Writing analysis data to CuVac.castep_bin

Writing model to CuVac.check
 *********************** 
     Iteration:    13
         Max Force Component:             0.052357 eV/Ang (0)
         Max Displacement Component:      0.000951 Ang (1)

 *********************** 
 *********************** 
     Iteration:    14
         Max Force Component:             0.053921 eV/Ang (0)
         Max Displacement Component:      0.000450 Ang (2)

 *********************** 
  Saving model to checkpoint file...

Writing analysis data to CuVac.castep_bin

Writing model to CuVac.check
 *********************** 
     Iteration:    15
         Max Force Component:             0.052629 eV/Ang (0)
         Max Displacement Component:      0.000237 Ang (3)

 *********************** 
 *********************** 
     Iteration:    16
         Max Force Component:             0.054000 eV/Ang (0)
         Max Displacement Component:      0.000104 Ang (4)

 *********************** 
  Saving model to checkpoint file...

Writing analysis data to CuVac.castep_bin

Writing model to CuVac.check
 *********************** 
     Iteration:    17
         Max Force Component:             0.052692 eV/Ang (0)
         Max Displacement Component:      0.000057 Ang (5)

 *********************** 
 *********************** 
     Iteration:    18
         Max Force Component:             0.054017 eV/Ang (0)
         Max Displacement Component:      0.000025 Ang (6)

 *********************** 
  Saving model to checkpoint file...

Writing analysis data to CuVac.castep_bin

Writing model to CuVac.check
 *********************** 
     Iteration:    19
         Max Force Component:             0.052709 eV/Ang (0)
         Max Displacement Component:      0.000013 Ang (7)

 *********************** 
 *********************** 
     Iteration:    20
         Max Force Component:             0.054024 eV/Ang (0)
         Max Displacement Component:      0.000006 Ang (8)

 *********************** 
  Saving model to checkpoint file...

Writing analysis data to CuVac.castep_bin

Writing model to CuVac.check
 *********************** 
     Iteration:    21
         Max Force Component:             0.052710 eV/Ang (0)
         Max Displacement Component:      0.000003 Ang (9)

 *********************** 
 *********************** 
     Iteration:    22
         Max Force Component:             0.054023 eV/Ang (0)
         Max Displacement Component:      0.000001 Ang (*)

 *********************** 
  Saving model to checkpoint file...

Writing analysis data to CuVac.castep_bin

Writing model to CuVac.check
 *********************** 
     Iteration:    23
         Max Force Component:             0.052713 eV/Ang (0)
         Max Displacement Component:      0.000001 Ang (*)

 *********************** 
 Stopping NEB iterations due to displacements being too small

     Failed to converge
 
 ************************************** Forces **************************************
 *                                                                                  *
 *                           Cartesian components (eV/A)                            *
 * -------------------------------------------------------------------------------- *
 *                         x                    y                    z              *
 *                                                                                  *
 * Cu              1     -0.00747             -0.00747              0.00002         *
 * Cu              2     -0.00445             -0.01245             -0.00812         *
 * Cu              3     -0.01246             -0.00443             -0.00811         *
 * Cu              4      0.01012              0.01011             -0.00022         *
 * Cu              5     -0.01053             -0.01052              0.00024         *
 * Cu              6     -0.00443             -0.01246              0.00793         *
 * Cu              7     -0.01246             -0.00444              0.00793         *
 * Cu              8      0.14938              0.14938              0.00027         *
 * Cu              9      0.03230             -0.02098              0.00003         *
 * Cu             10      0.00145             -0.01275             -0.00761         *
 * Cu             11      0.01480             -0.02041              0.07042         *
 * Cu             12     -0.00536             -0.03269              0.00003         *
 * Cu             13     -0.03838             -0.00570              0.00024         *
 * Cu             14      0.00145             -0.01275              0.00743         *
 * Cu             15      0.01479             -0.02041             -0.07059         *
 * Cu             16     -0.01192              0.00532              0.00025         *
 * Cu             17     -0.02098              0.03230              0.00004         *
 * Cu             18     -0.02041              0.01481              0.07042         *
 * Cu             19     -0.01275              0.00145             -0.00761         *
 * Cu             20     -0.03269             -0.00536             -0.00023         *
 * Cu             21     -0.00570             -0.03838              0.00024         *
 * Cu             22     -0.02042              0.01479             -0.07060         *
 * Cu             23     -0.01276              0.00144              0.00743         *
 * Cu             24      0.00532             -0.01192              0.00025         *
 * Cu             25     -0.02559             -0.02559              0.00002         *
 * Cu             26     -0.00261              0.01432             -0.03477         *
 * Cu             27      0.01432             -0.00262             -0.03477         *
 * Cu             28     -0.00395             -0.00395              0.00003         *
 * Cu             29     -0.00262              0.01432              0.03460         *
 * Cu             30      0.01432             -0.00261              0.03460         *
 * Cu             31      0.00965              0.00964              0.00025         *
 *                                                                                  *
 ************************************************************************************
 
 Pseudo atomic calculation performed for Cu 3d10 4s1
 
 Converged in 49 iterations to a total energy of -1676.8614 eV
Charge spilling parameter for spin component 1 = 0.09%
Charge spilling parameter for spin component 2 = 0.09%
 
                   Orbital Populations                  
  ---------------------------------------------------------------
     Ion    Atom   Orbital              Up        Down      Spin
  ---------------------------------------------------------------
     Cu     1      Dzz                  0.978     0.978    -0.000
     Cu     1      Dzy                  0.966     0.966     0.000
     Cu     1      Dzx                  0.966     0.966     0.000
     Cu     1      Dxx-yy               0.978     0.978     0.000
     Cu     1      Dxy                  0.965     0.965    -0.000
     Cu     1      S                    0.397     0.397    -0.000
     Cu     1      Px                   0.079     0.079     0.000
     Cu     1      Py                   0.079     0.079     0.000
     Cu     1      Pz                   0.079     0.079     0.000
     Cu     2      Dzz                  0.977     0.977     0.000
     Cu     2      Dzy                  0.964     0.964    -0.000
     Cu     2      Dzx                  0.973     0.973    -0.000
     Cu     2      Dxx-yy               0.979     0.979    -0.000
     Cu     2      Dxy                  0.964     0.964    -0.000
     Cu     2      S                    0.407     0.407    -0.000
     Cu     2      Px                   0.076     0.076     0.000
     Cu     2      Py                   0.093     0.093     0.000
     Cu     2      Pz                   0.077     0.077     0.000
     Cu     3      Dzz                  0.977     0.977     0.000
     Cu     3      Dzy                  0.973     0.973    -0.000
     Cu     3      Dzx                  0.964     0.964    -0.000
     Cu     3      Dxx-yy               0.979     0.979    -0.000
     Cu     3      Dxy                  0.964     0.964    -0.000
     Cu     3      S                    0.407     0.407    -0.000
     Cu     3      Px                   0.093     0.093    -0.000
     Cu     3      Py                   0.076     0.076     0.000
     Cu     3      Pz                   0.077     0.077     0.000
     Cu     4      Dzz                  0.976     0.976    -0.000
     Cu     4      Dzy                  0.966     0.966    -0.000
     Cu     4      Dzx                  0.966     0.966     0.000
     Cu     4      Dxx-yy               0.978     0.978    -0.000
     Cu     4      Dxy                  0.966     0.966    -0.000
     Cu     4      S                    0.413     0.413     0.000
     Cu     4      Px                   0.077     0.077     0.000
     Cu     4      Py                   0.077     0.077     0.000
     Cu     4      Pz                   0.129     0.129    -0.000
     Cu     5      Dzz                  0.980     0.980     0.000
     Cu     5      Dzy                  0.964     0.964     0.000
     Cu     5      Dzx                  0.964     0.964     0.000
     Cu     5      Dxx-yy               0.976     0.976    -0.000
     Cu     5      Dxy                  0.974     0.974    -0.000
     Cu     5      S                    0.407     0.407     0.000
     Cu     5      Px                   0.077     0.077     0.000
     Cu     5      Py                   0.077     0.077     0.000
     Cu     5      Pz                   0.092     0.092     0.000
     Cu     6      Dzz                  0.977     0.977    -0.000
     Cu     6      Dzy                  0.964     0.964    -0.000
     Cu     6      Dzx                  0.973     0.973    -0.000
     Cu     6      Dxx-yy               0.979     0.979     0.000
     Cu     6      Dxy                  0.964     0.964    -0.000
     Cu     6      S                    0.407     0.407     0.000
     Cu     6      Px                   0.076     0.076     0.000
     Cu     6      Py                   0.093     0.093     0.000
     Cu     6      Pz                   0.077     0.077     0.000
     Cu     7      Dzz                  0.977     0.977    -0.000
     Cu     7      Dzy                  0.973     0.973    -0.000
     Cu     7      Dzx                  0.964     0.964    -0.000
     Cu     7      Dxx-yy               0.979     0.979     0.000
     Cu     7      Dxy                  0.964     0.964    -0.000
     Cu     7      S                    0.407     0.407     0.000
     Cu     7      Px                   0.093     0.093     0.000
     Cu     7      Py                   0.076     0.076     0.000
     Cu     7      Pz                   0.077     0.077     0.000
     Cu     8      Dzz                  0.980     0.980     0.000
     Cu     8      Dzy                  0.964     0.964     0.000
     Cu     8      Dzx                  0.964     0.964     0.000
     Cu     8      Dxx-yy               0.976     0.976    -0.000
     Cu     8      Dxy                  0.974     0.974     0.000
     Cu     8      S                    0.402     0.402     0.000
     Cu     8      Px                   0.076     0.076     0.000
     Cu     8      Py                   0.076     0.076     0.000
     Cu     8      Pz                   0.092     0.092     0.000
     Cu     9      Dzz                  0.978     0.978     0.000
     Cu     9      Dzy                  0.966     0.966    -0.000
     Cu     9      Dzx                  0.965     0.965    -0.000
     Cu     9      Dxx-yy               0.978     0.978    -0.000
     Cu     9      Dxy                  0.966     0.966     0.000
     Cu     9      S                    0.397     0.397    -0.000
     Cu     9      Px                   0.079     0.079     0.000
     Cu     9      Py                   0.079     0.079     0.000
     Cu     9      Pz                   0.078     0.078    -0.000
     Cu    10      Dzz                  0.978     0.978     0.000
     Cu    10      Dzy                  0.966     0.966     0.000
     Cu    10      Dzx                  0.966     0.966    -0.000
     Cu    10      Dxx-yy               0.978     0.978    -0.000
     Cu    10      Dxy                  0.965     0.965    -0.000
     Cu    10      S                    0.397     0.397     0.000
     Cu    10      Px                   0.080     0.080     0.000
     Cu    10      Py                   0.078     0.078     0.000
     Cu    10      Pz                   0.080     0.080    -0.000
     Cu    11      Dzz                  0.977     0.977    -0.000
     Cu    11      Dzy                  0.973     0.973    -0.000
     Cu    11      Dzx                  0.964     0.964    -0.000
     Cu    11      Dxx-yy               0.979     0.979    -0.000
     Cu    11      Dxy                  0.964     0.964     0.000
     Cu    11      S                    0.409     0.409     0.000
     Cu    11      Px                   0.093     0.093     0.000
     Cu    11      Py                   0.078     0.078     0.000
     Cu    11      Pz                   0.077     0.077     0.000
     Cu    12      Dzz                  0.978     0.978     0.000
     Cu    12      Dzy                  0.970     0.970    -0.000
     Cu    12      Dzx                  0.965     0.965    -0.000
     Cu    12      Dxx-yy               0.979     0.979    -0.000
     Cu    12      Dxy                  0.965     0.965    -0.000
     Cu    12      S                    0.394     0.394     0.000
     Cu    12      Px                   0.076     0.076     0.000
     Cu    12      Py                   0.067     0.067     0.000
     Cu    12      Pz                   0.068     0.068     0.000
     Cu    13      Dzz                  0.980     0.980    -0.000
     Cu    13      Dzy                  0.964     0.964    -0.000
     Cu    13      Dzx                  0.964     0.964     0.000
     Cu    13      Dxx-yy               0.976     0.976    -0.000
     Cu    13      Dxy                  0.973     0.973    -0.000
     Cu    13      S                    0.406     0.406     0.000
     Cu    13      Px                   0.078     0.078     0.000
     Cu    13      Py                   0.076     0.076    -0.000
     Cu    13      Pz                   0.092     0.092     0.000
     Cu    14      Dzz                  0.978     0.978     0.000
     Cu    14      Dzy                  0.966     0.966    -0.000
     Cu    14      Dzx                  0.966     0.966    -0.000
     Cu    14      Dxx-yy               0.978     0.978    -0.000
     Cu    14      Dxy                  0.965     0.965     0.000
     Cu    14      S                    0.397     0.397     0.000
     Cu    14      Px                   0.080     0.080     0.000
     Cu    14      Py                   0.079     0.079     0.000
     Cu    14      Pz                   0.080     0.080     0.000
     Cu    15      Dzz                  0.977     0.977    -0.000
     Cu    15      Dzy                  0.973     0.973    -0.000
     Cu    15      Dzx                  0.964     0.964    -0.000
     Cu    15      Dxx-yy               0.979     0.979    -0.000
     Cu    15      Dxy                  0.964     0.964     0.000
     Cu    15      S                    0.409     0.409     0.000
     Cu    15      Px                   0.093     0.093     0.000
     Cu    15      Py                   0.078     0.078     0.000
     Cu    15      Pz                   0.077     0.077     0.000
     Cu    16      Dzz                  0.978     0.978    -0.000
     Cu    16      Dzy                  0.967     0.967    -0.000
     Cu    16      Dzx                  0.966     0.966    -0.000
     Cu    16      Dxx-yy               0.976     0.976    -0.000
     Cu    16      Dxy                  0.967     0.967    -0.000
     Cu    16      S                    0.413     0.413     0.000
     Cu    16      Px                   0.075     0.075     0.000
     Cu    16      Py                   0.132     0.132     0.000
     Cu    16      Pz                   0.077     0.077     0.000
     Cu    17      Dzz                  0.978     0.978     0.000
     Cu    17      Dzy                  0.965     0.965    -0.000
     Cu    17      Dzx                  0.966     0.966    -0.000
     Cu    17      Dxx-yy               0.978     0.978    -0.000
     Cu    17      Dxy                  0.966     0.966     0.000
     Cu    17      S                    0.397     0.397    -0.000
     Cu    17      Px                   0.079     0.079     0.000
     Cu    17      Py                   0.079     0.079     0.000
     Cu    17      Pz                   0.078     0.078    -0.000
     Cu    18      Dzz                  0.977     0.977    -0.000
     Cu    18      Dzy                  0.964     0.964    -0.000
     Cu    18      Dzx                  0.973     0.973    -0.000
     Cu    18      Dxx-yy               0.979     0.979    -0.000
     Cu    18      Dxy                  0.964     0.964     0.000
     Cu    18      S                    0.409     0.409     0.000
     Cu    18      Px                   0.078     0.078     0.000
     Cu    18      Py                   0.093     0.093     0.000
     Cu    18      Pz                   0.077     0.077     0.000
     Cu    19      Dzz                  0.978     0.978     0.000
     Cu    19      Dzy                  0.966     0.966    -0.000
     Cu    19      Dzx                  0.966     0.966     0.000
     Cu    19      Dxx-yy               0.978     0.978     0.000
     Cu    19      Dxy                  0.965     0.965    -0.000
     Cu    19      S                    0.397     0.397     0.000
     Cu    19      Px                   0.079     0.078     0.000
     Cu    19      Py                   0.080     0.080     0.000
     Cu    19      Pz                   0.080     0.080     0.000
     Cu    20      Dzz                  0.978     0.978     0.000
     Cu    20      Dzy                  0.965     0.965    -0.000
     Cu    20      Dzx                  0.970     0.970    -0.000
     Cu    20      Dxx-yy               0.979     0.979     0.000
     Cu    20      Dxy                  0.965     0.965    -0.000
     Cu    20      S                    0.394     0.394     0.000
     Cu    20      Px                   0.067     0.067     0.000
     Cu    20      Py                   0.076     0.076     0.000
     Cu    20      Pz                   0.068     0.068     0.000
     Cu    21      Dzz                  0.980     0.980    -0.000
     Cu    21      Dzy                  0.964     0.964     0.000
     Cu    21      Dzx                  0.964     0.964    -0.000
     Cu    21      Dxx-yy               0.976     0.976    -0.000
     Cu    21      Dxy                  0.973     0.973    -0.000
     Cu    21      S                    0.406     0.406     0.000
     Cu    21      Px                   0.076     0.076    -0.000
     Cu    21      Py                   0.078     0.078     0.000
     Cu    21      Pz                   0.092     0.092     0.000
     Cu    22      Dzz                  0.977     0.977    -0.000
     Cu    22      Dzy                  0.964     0.964    -0.000
     Cu    22      Dzx                  0.973     0.973    -0.000
     Cu    22      Dxx-yy               0.979     0.979    -0.000
     Cu    22      Dxy                  0.964     0.964     0.000
     Cu    22      S                    0.409     0.409     0.000
     Cu    22      Px                   0.078     0.078     0.000
     Cu    22      Py                   0.093     0.093     0.000
     Cu    22      Pz                   0.077     0.077     0.000
     Cu    23      Dzz                  0.978     0.978     0.000
     Cu    23      Dzy                  0.966     0.966    -0.000
     Cu    23      Dzx                  0.966     0.966    -0.000
     Cu    23      Dxx-yy               0.978     0.978    -0.000
     Cu    23      Dxy                  0.965     0.965     0.000
     Cu    23      S                    0.397     0.397     0.000
     Cu    23      Px                   0.079     0.079     0.000
     Cu    23      Py                   0.080     0.080     0.000
     Cu    23      Pz                   0.080     0.080     0.000
     Cu    24      Dzz                  0.978     0.978    -0.000
     Cu    24      Dzy                  0.966     0.966    -0.000
     Cu    24      Dzx                  0.967     0.967    -0.000
     Cu    24      Dxx-yy               0.976     0.976    -0.000
     Cu    24      Dxy                  0.967     0.967    -0.000
     Cu    24      S                    0.413     0.413     0.000
     Cu    24      Px                   0.132     0.132     0.000
     Cu    24      Py                   0.075     0.075     0.000
     Cu    24      Pz                   0.077     0.077     0.000
     Cu    25      Dzz                  0.978     0.978     0.000
     Cu    25      Dzy                  0.965     0.965    -0.000
     Cu    25      Dzx                  0.965     0.965    -0.000
     Cu    25      Dxx-yy               0.978     0.978     0.000
     Cu    25      Dxy                  0.966     0.966    -0.000
     Cu    25      S                    0.397     0.397     0.000
     Cu    25      Px                   0.080     0.080     0.000
     Cu    25      Py                   0.080     0.080     0.000
     Cu    25      Pz                   0.077     0.077    -0.000
     Cu    26      Dzz                  0.978     0.978    -0.000
     Cu    26      Dzy                  0.966     0.966    -0.000
     Cu    26      Dzx                  0.965     0.965    -0.000
     Cu    26      Dxx-yy               0.978     0.978     0.000
     Cu    26      Dxy                  0.965     0.965     0.000
     Cu    26      S                    0.396     0.396     0.000
     Cu    26      Px                   0.079     0.079     0.000
     Cu    26      Py                   0.080     0.080     0.000
     Cu    26      Pz                   0.080     0.080     0.000
     Cu    27      Dzz                  0.978     0.978    -0.000
     Cu    27      Dzy                  0.965     0.965    -0.000
     Cu    27      Dzx                  0.966     0.966    -0.000
     Cu    27      Dxx-yy               0.978     0.978     0.000
     Cu    27      Dxy                  0.965     0.965     0.000
     Cu    27      S                    0.396     0.396     0.000
     Cu    27      Px                   0.080     0.080     0.000
     Cu    27      Py                   0.079     0.079     0.000
     Cu    27      Pz                   0.080     0.080     0.000
     Cu    28      Dzz                  0.977     0.977    -0.000
     Cu    28      Dzy                  0.966     0.966    -0.000
     Cu    28      Dzx                  0.966     0.966    -0.000
     Cu    28      Dxx-yy               0.978     0.978    -0.000
     Cu    28      Dxy                  0.966     0.966     0.000
     Cu    28      S                    0.393     0.393    -0.000
     Cu    28      Px                   0.080     0.080     0.000
     Cu    28      Py                   0.080     0.080     0.000
     Cu    28      Pz                   0.083     0.083     0.000
     Cu    29      Dzz                  0.978     0.978     0.000
     Cu    29      Dzy                  0.966     0.966    -0.000
     Cu    29      Dzx                  0.965     0.965     0.000
     Cu    29      Dxx-yy               0.978     0.978     0.000
     Cu    29      Dxy                  0.965     0.965    -0.000
     Cu    29      S                    0.396     0.396     0.000
     Cu    29      Px                   0.079     0.079     0.000
     Cu    29      Py                   0.080     0.080     0.000
     Cu    29      Pz                   0.080     0.080     0.000
     Cu    30      Dzz                  0.978     0.978     0.000
     Cu    30      Dzy                  0.965     0.965     0.000
     Cu    30      Dzx                  0.966     0.966    -0.000
     Cu    30      Dxx-yy               0.978     0.978     0.000
     Cu    30      Dxy                  0.965     0.965    -0.000
     Cu    30      S                    0.396     0.396     0.000
     Cu    30      Px                   0.080     0.080     0.000
     Cu    30      Py                   0.079     0.079     0.000
     Cu    30      Pz                   0.080     0.080     0.000
     Cu    31      Dzz                  0.980     0.980     0.000
     Cu    31      Dzy                  0.964     0.964    -0.000
     Cu    31      Dzx                  0.964     0.964    -0.000
     Cu    31      Dxx-yy               0.977     0.977    -0.000
     Cu    31      Dxy                  0.971     0.971    -0.000
     Cu    31      S                    0.392     0.392     0.000
     Cu    31      Px                   0.070     0.070     0.000
     Cu    31      Py                   0.070     0.070     0.000
     Cu    31      Pz                   0.074     0.074    -0.000
  ---------------------------------------------------------------
                           Total:     170.500   170.500    -0.000
  ---------------------------------------------------------------
 
     Atomic Populations (Mulliken)
     -----------------------------
Species          Ion Spin      s       p       d       f      Total   Charge(e)   Spin(hbar/2)
==============================================================================================
  Cu              1   up:     0.397   0.237   4.853   0.000   5.487     0.026        0.000
                  1   dn:     0.397   0.237   4.853   0.000   5.487
  Cu              2   up:     0.407   0.246   4.857   0.000   5.510    -0.021       -0.000
                  2   dn:     0.407   0.246   4.857   0.000   5.510
  Cu              3   up:     0.407   0.246   4.857   0.000   5.510    -0.021       -0.000
                  3   dn:     0.407   0.246   4.857   0.000   5.510
  Cu              4   up:     0.413   0.283   4.852   0.000   5.548    -0.097        0.000
                  4   dn:     0.413   0.283   4.852   0.000   5.548
  Cu              5   up:     0.407   0.247   4.857   0.000   5.511    -0.022        0.000
                  5   dn:     0.407   0.246   4.857   0.000   5.511
  Cu              6   up:     0.407   0.246   4.857   0.000   5.510    -0.021       -0.000
                  6   dn:     0.407   0.246   4.857   0.000   5.510
  Cu              7   up:     0.407   0.246   4.857   0.000   5.510    -0.021       -0.000
                  7   dn:     0.407   0.246   4.857   0.000   5.510
  Cu              8   up:     0.402   0.243   4.858   0.000   5.503    -0.006        0.000
                  8   dn:     0.402   0.243   4.858   0.000   5.503
  Cu              9   up:     0.397   0.237   4.853   0.000   5.486     0.027        0.000
                  9   dn:     0.397   0.237   4.853   0.000   5.486
  Cu             10   up:     0.397   0.238   4.853   0.000   5.487     0.026        0.000
                 10   dn:     0.397   0.238   4.853   0.000   5.487
  Cu             11   up:     0.409   0.248   4.857   0.000   5.514    -0.028        0.000
                 11   dn:     0.409   0.248   4.857   0.000   5.514
  Cu             12   up:     0.394   0.211   4.857   0.000   5.462     0.077       -0.000
                 12   dn:     0.394   0.211   4.857   0.000   5.462
  Cu             13   up:     0.406   0.246   4.857   0.000   5.510    -0.020        0.000
                 13   dn:     0.406   0.246   4.857   0.000   5.510
  Cu             14   up:     0.397   0.238   4.853   0.000   5.487     0.026        0.000
                 14   dn:     0.397   0.238   4.853   0.000   5.487
  Cu             15   up:     0.409   0.248   4.857   0.000   5.514    -0.028        0.000
                 15   dn:     0.409   0.248   4.857   0.000   5.514
  Cu             16   up:     0.413   0.284   4.852   0.000   5.549    -0.098       -0.000
                 16   dn:     0.413   0.284   4.852   0.000   5.549
  Cu             17   up:     0.397   0.237   4.853   0.000   5.486     0.027        0.000
                 17   dn:     0.397   0.237   4.853   0.000   5.486
  Cu             18   up:     0.409   0.248   4.857   0.000   5.514    -0.028        0.000
                 18   dn:     0.409   0.248   4.857   0.000   5.514
  Cu             19   up:     0.397   0.238   4.853   0.000   5.487     0.026        0.000
                 19   dn:     0.397   0.238   4.853   0.000   5.487
  Cu             20   up:     0.394   0.211   4.857   0.000   5.462     0.077       -0.000
                 20   dn:     0.394   0.211   4.857   0.000   5.462
  Cu             21   up:     0.406   0.246   4.857   0.000   5.510    -0.020        0.000
                 21   dn:     0.406   0.246   4.857   0.000   5.510
  Cu             22   up:     0.409   0.248   4.857   0.000   5.514    -0.028        0.000
                 22   dn:     0.409   0.248   4.857   0.000   5.514
  Cu             23   up:     0.397   0.238   4.853   0.000   5.487     0.026        0.000
                 23   dn:     0.397   0.238   4.853   0.000   5.487
  Cu             24   up:     0.413   0.284   4.852   0.000   5.549    -0.098       -0.000
                 24   dn:     0.413   0.284   4.852   0.000   5.549
  Cu             25   up:     0.397   0.236   4.853   0.000   5.486     0.027        0.000
                 25   dn:     0.397   0.236   4.853   0.000   5.486
  Cu             26   up:     0.396   0.239   4.853   0.000   5.488     0.024       -0.000
                 26   dn:     0.396   0.239   4.853   0.000   5.488
  Cu             27   up:     0.396   0.239   4.853   0.000   5.488     0.024       -0.000
                 27   dn:     0.396   0.239   4.853   0.000   5.488
  Cu             28   up:     0.393   0.243   4.853   0.000   5.489     0.022       -0.000
                 28   dn:     0.393   0.243   4.853   0.000   5.489
  Cu             29   up:     0.396   0.239   4.853   0.000   5.488     0.024        0.000
                 29   dn:     0.396   0.239   4.853   0.000   5.488
  Cu             30   up:     0.396   0.239   4.853   0.000   5.488     0.024        0.000
                 30   dn:     0.396   0.239   4.853   0.000   5.488
  Cu             31   up:     0.392   0.214   4.857   0.000   5.463     0.073       -0.000
                 31   dn:     0.392   0.214   4.857   0.000   5.463
==============================================================================================
 
                 Bond                   Population        Spin       Length (A)
================================================================================
             Cu 8  -- Cu 18                  0.31         0.00          2.52337
             Cu 8  -- Cu 11                  0.31        -0.00          2.52337
             Cu 8  -- Cu 15                  0.31         0.00          2.52343
             Cu 8  -- Cu 22                  0.31         0.00          2.52343
             Cu 2  -- Cu 13                  0.31         0.00          2.53082
             Cu 3  -- Cu 21                  0.31         0.00          2.53082
             Cu 7  -- Cu 21                  0.31         0.00          2.53087
             Cu 6  -- Cu 13                  0.31         0.00          2.53088
             Cu 2  -- Cu 11                  0.31         0.00          2.53427
             Cu 3  -- Cu 18                  0.31        -0.00          2.53427
             Cu 6  -- Cu 15                  0.31        -0.00          2.53428
             Cu 7  -- Cu 22                  0.31        -0.00          2.53428
             Cu 2  -- Cu 5                   0.31        -0.00          2.53502
             Cu 3  -- Cu 5                   0.31        -0.00          2.53503
             Cu 5  -- Cu 7                   0.31        -0.00          2.53508
             Cu 5  -- Cu 6                   0.31        -0.00          2.53509
             Cu 2  -- Cu 3                   0.31         0.00          2.53950
             Cu 6  -- Cu 7                   0.31         0.00          2.53951
             Cu 18 -- Cu 21                  0.31         0.00          2.54094
             Cu 11 -- Cu 13                  0.31         0.00          2.54095
             Cu 13 -- Cu 15                  0.31         0.00          2.54100
             Cu 21 -- Cu 22                  0.31         0.00          2.54101
             Cu 24 -- Cu 27                  0.27         0.00          2.54135
             Cu 16 -- Cu 26                  0.27         0.00          2.54135
             Cu 16 -- Cu 29                  0.27         0.00          2.54139
             Cu 24 -- Cu 30                  0.27         0.00          2.54140
             Cu 27 -- Cu 31                  0.27         0.00          2.54520
             Cu 26 -- Cu 31                  0.27         0.00          2.54521
             Cu 29 -- Cu 31                  0.27         0.00          2.54525
             Cu 30 -- Cu 31                  0.27         0.00          2.54526
             Cu 1  -- Cu 4                   0.26         0.00          2.54643
             Cu 9  -- Cu 20                  0.27         0.00          2.54856
             Cu 12 -- Cu 17                  0.27         0.00          2.54856
             Cu 4  -- Cu 18                  0.30         0.00          2.55126
             Cu 4  -- Cu 11                  0.30         0.00          2.55126
             Cu 4  -- Cu 15                  0.30         0.00          2.55131
             Cu 4  -- Cu 22                  0.30         0.00          2.55131
             Cu 21 -- Cu 24                  0.30        -0.00          2.55153
             Cu 13 -- Cu 16                  0.30        -0.00          2.55153
             Cu 17 -- Cu 28                  0.28        -0.00          2.55491
             Cu 9  -- Cu 28                  0.28        -0.00          2.55491
             Cu 1  -- Cu 20                  0.27         0.00          2.55545
             Cu 1  -- Cu 12                  0.27         0.00          2.55545
             Cu 25 -- Cu 28                  0.28        -0.00          2.55552
             Cu 15 -- Cu 22                  0.30         0.00          2.55587
             Cu 11 -- Cu 18                  0.30         0.00          2.55587
             Cu 19 -- Cu 24                  0.26        -0.00          2.55699
             Cu 10 -- Cu 16                  0.26        -0.00          2.55699
             Cu 14 -- Cu 16                  0.26         0.00          2.55703
             Cu 23 -- Cu 24                  0.26         0.00          2.55703
             Cu 17 -- Cu 22                  0.25         0.00          2.55882
             Cu 9  -- Cu 15                  0.25         0.00          2.55883
             Cu 9  -- Cu 11                  0.25        -0.00          2.55884
             Cu 17 -- Cu 18                  0.25        -0.00          2.55884
             Cu 2  -- Cu 4                   0.30         0.00          2.56202
             Cu 3  -- Cu 4                   0.30         0.00          2.56203
             Cu 4  -- Cu 7                   0.30         0.00          2.56207
             Cu 4  -- Cu 6                   0.30         0.00          2.56207
             Cu 8  -- Cu 24                  0.30         0.00          2.56304
             Cu 8  -- Cu 16                  0.30         0.00          2.56304
             Cu 10 -- Cu 19                  0.26         0.00          2.56383
             Cu 14 -- Cu 23                  0.26         0.00          2.56385
             Cu 22 -- Cu 25                  0.24        -0.00          2.56452
             Cu 15 -- Cu 25                  0.24        -0.00          2.56453
             Cu 11 -- Cu 25                  0.24         0.00          2.56454
             Cu 26 -- Cu 27                  0.27         0.00          2.56454
             Cu 18 -- Cu 25                  0.24         0.00          2.56454
             Cu 29 -- Cu 30                  0.27        -0.00          2.56455
             Cu 3  -- Cu 16                  0.30        -0.00          2.56480
             Cu 2  -- Cu 24                  0.30        -0.00          2.56480
             Cu 6  -- Cu 24                  0.30         0.00          2.56487
             Cu 7  -- Cu 16                  0.30         0.00          2.56487
             Cu 19 -- Cu 31                  0.27        -0.00          2.56707
             Cu 10 -- Cu 31                  0.27        -0.00          2.56709
             Cu 14 -- Cu 31                  0.27         0.00          2.56713
             Cu 23 -- Cu 31                  0.27         0.00          2.56714
             Cu 22 -- Cu 30                  0.24         0.00          2.56834
             Cu 11 -- Cu 26                  0.24        -0.00          2.56836
             Cu 15 -- Cu 29                  0.24         0.00          2.56836
             Cu 18 -- Cu 27                  0.24        -0.00          2.56838
             Cu 5  -- Cu 16                  0.30         0.00          2.56848
             Cu 5  -- Cu 24                  0.30        -0.00          2.56848
             Cu 22 -- Cu 23                  0.24         0.00          2.56920
             Cu 10 -- Cu 11                  0.24         0.00          2.56920
             Cu 14 -- Cu 15                  0.24         0.00          2.56922
             Cu 18 -- Cu 19                  0.24         0.00          2.56922
             Cu 5  -- Cu 19                  0.24         0.00          2.57005
             Cu 5  -- Cu 10                  0.24         0.00          2.57006
             Cu 5  -- Cu 14                  0.24         0.00          2.57009
             Cu 5  -- Cu 23                  0.24         0.00          2.57010
             Cu 19 -- Cu 20                  0.26         0.00          2.57036
             Cu 12 -- Cu 14                  0.26         0.00          2.57039
             Cu 10 -- Cu 12                  0.26         0.00          2.57040
             Cu 20 -- Cu 23                  0.26         0.00          2.57043
             Cu 25 -- Cu 26                  0.26        -0.00          2.57189
             Cu 25 -- Cu 30                  0.26        -0.00          2.57189
             Cu 25 -- Cu 27                  0.26        -0.00          2.57190
             Cu 25 -- Cu 29                  0.26        -0.00          2.57190
             Cu 17 -- Cu 23                  0.26         0.00          2.57224
             Cu 9  -- Cu 10                  0.26        -0.00          2.57224
             Cu 9  -- Cu 14                  0.26         0.00          2.57225
             Cu 17 -- Cu 19                  0.26        -0.00          2.57225
             Cu 12 -- Cu 25                  0.26        -0.00          2.57345
             Cu 20 -- Cu 25                  0.26        -0.00          2.57345
             Cu 4  -- Cu 9                   0.25         0.00          2.57400
             Cu 4  -- Cu 17                  0.25         0.00          2.57400
             Cu 1  -- Cu 23                  0.26         0.00          2.57400
             Cu 1  -- Cu 10                  0.26        -0.00          2.57400
             Cu 1  -- Cu 14                  0.26         0.00          2.57401
             Cu 1  -- Cu 19                  0.26        -0.00          2.57401
             Cu 14 -- Cu 28                  0.27        -0.00          2.57412
             Cu 23 -- Cu 28                  0.27        -0.00          2.57412
             Cu 10 -- Cu 28                  0.27         0.00          2.57412
             Cu 19 -- Cu 28                  0.27         0.00          2.57413
             Cu 1  -- Cu 28                  0.27        -0.00          2.57418
             Cu 18 -- Cu 20                  0.24         0.00          2.57429
             Cu 12 -- Cu 15                  0.24         0.00          2.57431
             Cu 11 -- Cu 12                  0.24         0.00          2.57432
             Cu 20 -- Cu 22                  0.24         0.00          2.57433
             Cu 19 -- Cu 21                  0.24        -0.00          2.57468
             Cu 10 -- Cu 13                  0.24         0.00          2.57468
             Cu 13 -- Cu 14                  0.24         0.00          2.57471
             Cu 21 -- Cu 23                  0.24         0.00          2.57472
             Cu 20 -- Cu 27                  0.26        -0.00          2.57537
             Cu 12 -- Cu 29                  0.26         0.00          2.57540
             Cu 12 -- Cu 26                  0.26        -0.00          2.57541
             Cu 20 -- Cu 30                  0.26         0.00          2.57544
             Cu 6  -- Cu 30                  0.24         0.00          2.57700
             Cu 3  -- Cu 26                  0.24         0.00          2.57701
             Cu 7  -- Cu 29                  0.24         0.00          2.57702
             Cu 2  -- Cu 27                  0.24         0.00          2.57703
             Cu 6  -- Cu 23                  0.24        -0.00          2.57716
             Cu 3  -- Cu 10                  0.24        -0.00          2.57717
             Cu 7  -- Cu 14                  0.24        -0.00          2.57718
             Cu 2  -- Cu 19                  0.24        -0.00          2.57719
             Cu 9  -- Cu 30                  0.26         0.00          2.57805
             Cu 17 -- Cu 26                  0.26         0.00          2.57805
             Cu 17 -- Cu 29                  0.26         0.00          2.57805
             Cu 9  -- Cu 27                  0.26        -0.00          2.57806
             Cu 13 -- Cu 24                  0.29         0.00          2.57809
             Cu 16 -- Cu 21                  0.29         0.00          2.57809
             Cu 19 -- Cu 26                  0.26        -0.00          2.57859
             Cu 10 -- Cu 27                  0.26        -0.00          2.57859
             Cu 14 -- Cu 30                  0.26        -0.00          2.57860
             Cu 23 -- Cu 29                  0.26        -0.00          2.57860
             Cu 1  -- Cu 6                   0.24         0.00          2.57880
             Cu 1  -- Cu 7                   0.24         0.00          2.57880
             Cu 1  -- Cu 3                   0.24         0.00          2.57881
             Cu 1  -- Cu 2                   0.24         0.00          2.57883
             Cu 11 -- Cu 16                  0.30        -0.00          2.58010
             Cu 18 -- Cu 24                  0.30        -0.00          2.58010
             Cu 22 -- Cu 24                  0.30         0.00          2.58016
             Cu 15 -- Cu 16                  0.30         0.00          2.58016
             Cu 9  -- Cu 12                  0.26         0.00          2.58041
             Cu 17 -- Cu 20                  0.26         0.00          2.58041
             Cu 6  -- Cu 9                   0.24         0.00          2.58085
             Cu 7  -- Cu 17                  0.24         0.00          2.58086
             Cu 3  -- Cu 17                  0.24         0.00          2.58087
             Cu 2  -- Cu 9                   0.24         0.00          2.58088
             Cu 13 -- Cu 27                  0.24         0.00          2.58151
             Cu 21 -- Cu 26                  0.24         0.00          2.58152
             Cu 21 -- Cu 29                  0.24         0.00          2.58155
             Cu 13 -- Cu 30                  0.24         0.00          2.58156
             Cu 4  -- Cu 25                  0.25         0.00          2.58167
             Cu 28 -- Cu 30                  0.27        -0.00          2.58537
             Cu 28 -- Cu 29                  0.27        -0.00          2.58537
             Cu 26 -- Cu 28                  0.27        -0.00          2.58538
             Cu 27 -- Cu 28                  0.27        -0.00          2.58538
             Cu 2  -- Cu 20                  0.24         0.00          2.58612
             Cu 7  -- Cu 12                  0.24         0.00          2.58613
             Cu 3  -- Cu 12                  0.24         0.00          2.58615
             Cu 6  -- Cu 20                  0.24         0.00          2.58616
             Cu 8  -- Cu 27                  0.23         0.00          2.60112
             Cu 8  -- Cu 26                  0.23         0.00          2.60113
             Cu 8  -- Cu 29                  0.23         0.00          2.60117
             Cu 8  -- Cu 30                  0.23         0.00          2.60118
             Cu 13 -- Cu 31                  0.23        -0.00          2.60750
             Cu 21 -- Cu 31                  0.23        -0.00          2.60750
             Cu 5  -- Cu 31                  0.23         0.00          2.61044
             Cu 8  -- Cu 31                  0.22         0.00          2.66068
================================================================================
 

Writing analysis data to CuVac.castep_bin

Writing model to CuVac.check
 
 A BibTeX formatted list of references used in this run has been written to 
 CuVac.bib
 
Initialisation time =      9.25 s
Calculation time    =   9326.40 s
Finalisation time   =      2.80 s
Total time          =   9338.45 s
Peak Memory Use     = 5526264 kB
  
Overall parallel efficiency rating: Mediocre (50%)                              
  
Data was distributed by:-
G-vector (4-way); efficiency rating: Mediocre (58%)                             
k-point (32-way); efficiency rating: Very good (80%)                            
