 +-------------------------------------------------+
 |                                                 |
 |      CCC   AA    SSS  TTTTT  EEEEE  PPPP        |
 |     C     A  A  S       T    E      P   P       |
 |     C     AAAA   SS     T    EEE    PPPP        |
 |     C     A  A     S    T    E      P           |
 |      CCC  A  A  SSS     T    EEEEE  P           |
 |                                                 |
 +-------------------------------------------------+
 |                                                 |
 | Welcome to Academic Release CASTEP version 21.1 |          
 | Ab Initio Total Energy Program                  |
 |                                                 |
 | Authors:                                        |
 | M. Segall, M. Probert, C. Pickard, P. Hasnip,   |
 | S. Clark, K. Refson, J. R. Yates, M. Payne      |
 |                                                 |
 | Contributors:                                   |
 | P. Lindan, P. Haynes, J. White, V. Milman,      |
 | N. Govind, M. Gibson, P. Tulip, V. Cocula,      |
 | B. Montanari, D. Quigley, M. Glover,            |
 | L. Bernasconi, A. Perlov, M. Plummer,           |
 | E. McNellis, J. Meyer, J. Gale, D. Jochym       |
 | J. Aarons, B. Walker, R. Gillen, D. Jones       |
 | T. Green, I. J. Bush, C. J. Armstrong,          |
 | E. J. Higgins, E. L. Brown, M. S. McFly,        |
 | J. Wilkins, B-C. Shih, P. J. P. Byrne,          |
 | R. J. Maurer, J. C. Womack, J. Dziedzic,        |
 | A. Bartok-Partay, L. LeBlanc, T. K. Stenczel    |
 |                                                 |
 | Copyright (c) 2000 - 2020                       |
 |                                                 |
 |     Distributed under license from Cambridge    |
 |     Enterprise for academic use only.           |
 |                                                 |
 | Please cite                                     |
 |                                                 |
 |     "First principles methods using CASTEP"     |
 |                                                 |
 |         Zeitschrift fuer Kristallographie       |
 |           220(5-6) pp. 567-570 (2005)           |
 |                                                 |
 | S. J. Clark, M. D. Segall, C. J. Pickard,       |
 | P. J. Hasnip, M. J. Probert, K. Refson,         |
 | M. C. Payne                                     |
 |                                                 |
 |       in all publications arising from          |
 |              your use of CASTEP                 |
 |                                                 |
 +-------------------------------------------------+
 |                                                 |
 |              http://www.castep.org              |
 |                                                 |
 +-------------------------------------------------+
 
 
 
 Compiled for linux_x86_64_ifort on Wed, 11 Aug 2021 15:16:06 +0100
 from code version 
 b9537cc+  new-neb-implementation  Wed Aug 11 15:07:38 2021 +0100
 Compiler: Intel Fortran 18.0.3.222; Optimisation: fast
 MATHLIBS: Intel MKL(2018.0.3) (LAPACK version 3.7.0)
 FFT Lib : default
 Fundamental constants values: CODATA 2014
 
 Run started: Wed, 11 Aug 2021 15:45:01 +0100
 
 Atomic calculation performed for Cu: 1s2 2s2 2p6 3s2 3p6 3d10 4s1
 
 Converged in 145 iterations to an ae energy of -45030.712 eV
 
   ============================================================                
   | Pseudopotential Report - Date of generation 11-08-2021   |                
   ------------------------------------------------------------                
   | Element: Cu Ionic charge: 11.00 Level of theory: PBE     |                
   | Atomic Solver: Koelling-Harmon                           |                
   |                                                          |                
   |               Reference Electronic Structure             |                
   |         Orbital         Occupation         Energy        |                
   |            3d             10.000           -0.185        |                
   |            4s              1.000           -0.169        |                
   |                                                          |                
   |                 Pseudopotential Definition               |                
   |        Beta     l      e      Rc     scheme   norm       |                
   |          1      0   -0.169   1.996     qc      0         |                
   |          2      0    0.250   1.996     qc      0         |                
   |          3      1    0.000   1.996     qc      0         |                
   |          4      1    0.250   1.996     qc      0         |                
   |          5      2   -0.185   1.996     qc      0         |                
   |          6      2    0.250   1.996     qc      0         |                
   |         loc     3    0.000   2.206     pn      0         |                
   |                                                          |                
   | Augmentation charge Rinner = 0.999                       |                
   | Partial core correction Rc = 0.999                       |                
   ------------------------------------------------------------                
   | "3|2.2|2.0|1.0|10|12|13|40:41:32(qc=6)"                  |                
   ------------------------------------------------------------                
   |      Author: Chris J. Pickard, Cambridge University      |                
   ============================================================                
 
 Pseudo atomic calculation performed for Cu 3d10 4s1
 
 Converged in 49 iterations to a total energy of -1676.8614 eV
 Calculation parallelised over 64 processes.
 Data is distributed by G-vector(2-way) and k-point(32-way)

 ************************************ Title ************************************
 

 ***************************** General Parameters ******************************
  
 output verbosity                               : normal  (1)
 write checkpoint data to                       : CuVac.check
 type of calculation                            : transition state search
 stress calculation                             : off
 density difference calculation                 : off
 electron localisation func (ELF) calculation   : off
 Hirshfeld analysis                             : off
 polarisation (Berry phase) analysis            : off
 molecular orbital projected DOS                : off
 deltaSCF calculation                           : off
 unlimited duration calculation
 timing information                             : on
 memory usage estimate                          : on
 write extra output files                       : on
 write final potential to formatted file        : off
 write final density to formatted file          : off
 write structure in CELL formatted file         : on
 write BibTeX reference list                    : on
 write OTFG pseudopotential files               : on
 write electrostatic potential file             : on
 write bands file                               : on
 checkpoint writing                             : both castep_bin and check files
  
 output         length unit                     : A
 output           mass unit                     : amu
 output           time unit                     : ps
 output         charge unit                     : e
 output           spin unit                     : hbar/2
 output         energy unit                     : eV
 output          force unit                     : eV/A
 output       velocity unit                     : A/ps
 output       pressure unit                     : GPa
 output     inv_length unit                     : 1/A
 output      frequency unit                     : cm-1
 output force constant unit                     : eV/A**2
 output         volume unit                     : A**3
 output   IR intensity unit                     : (D/A)**2/amu
 output         dipole unit                     : D
 output         efield unit                     : eV/A/e
 output        entropy unit                     : J/mol/K
 output    efield chi2 unit                     : pm/V
  
 wavefunctions paging                           : none
 random number generator seed                   : randomised (154501880)
 data distribution                              : optimal for this architecture
 optimization strategy                          : balance speed and memory

 *********************** Exchange-Correlation Parameters ***********************
  
 using functional                               : Perdew Burke Ernzerhof
 relativistic treatment                         : Koelling-Harmon
 DFT+D: Semi-empirical dispersion correction    : off

 ************************* Pseudopotential Parameters **************************
  
 pseudopotential representation                 : reciprocal space
 <beta|phi> representation                      : reciprocal space
 spin-orbit coupling                            : off

 **************************** Basis Set Parameters *****************************
  
 plane wave basis set cut-off                   :   500.0000   eV
 size of standard grid                          :     1.7500
 size of   fine   gmax                          :    20.0476   1/A
 finite basis set correction                    : none

 **************************** Electronic Parameters ****************************
  
 number of  electrons                           :  341.0    
 net charge of system                           :  0.000    
 net spin   of system                           :  1.000    
 number of  up  spins                           :  171.0    
 number of down spins                           :  170.0    
 treating system as spin-polarized
 number of bands                                :        205

 ********************* Electronic Minimization Parameters **********************
  
 Method: Treating system as metallic with density mixing treatment of electrons,
         and number of  SD  steps               :          1
         and number of  CG  steps               :          4
  
 total energy / atom convergence tol.           : 0.1000E-04   eV
 eigen-energy convergence tolerance             : 0.1000E-05   eV
 max force / atom convergence tol.              : ignored
 convergence tolerance window                   :          3   cycles
 max. number of SCF cycles                      :        100
 number of fixed-spin iterations                :         10
 smearing scheme                                : Gaussian
 smearing width                                 : 0.2000       eV
 Fermi energy convergence tolerance             : 0.2721E-13   eV
 periodic dipole correction                     : NONE

 ************************** Density Mixing Parameters **************************
  
 density-mixing scheme                          : Broyden
 max. length of mixing history                  :         20
 charge density mixing amplitude                : 0.8000    
   spin density mixing amplitude                :  2.000    
 cut-off energy for mixing                      :  500.0       eV

 *********************** Population Analysis Parameters ************************
  
 Population analysis with cutoff                :  3.000       A
 Population analysis output                     : summary and pdos components

 ********************* Transition State Search Parameters **********************
  
 search method                                  : NEB   
 max. ionic |force| tolerance                   : 0.5000E-01   eV/A
 max. ionic |displacement| tolerance            : 0.1000E-02   A
 max. ionic |energy| tolerance                  : 0.2000E-04   eV
 NEB method                                     : ODE12R    
 max. number of NEB iterations                  :        100
 max. number of path points                     :         11
 inter-bead spring constant                     : 0.1000       eV/A**2
 tangent mode                                   : SPLINE    
 central bead is                                : climbing up

 *******************************************************************************
  
 
                           -------------------------------
                                      Unit Cell
                           -------------------------------
        Real Lattice(A)                      Reciprocal Lattice(1/A)
     7.2533590     0.0000000     0.0000000        0.866244909   0.000000000   0.000000000
     0.0000000     7.2533590     0.0000000        0.000000000   0.866244909   0.000000000
     0.0000000     0.0000000     7.2533590        0.000000000   0.000000000   0.866244909
 
                       Lattice parameters(A)       Cell Angles
                    a =      7.253359          alpha =   90.000000
                    b =      7.253359          beta  =   90.000000
                    c =      7.253359          gamma =   90.000000
 
                       Current cell volume =           381.608043       A**3
                                   density =             5.162171   AMU/A**3
                                           =             8.571987     g/cm^3
 
                           -------------------------------
                                     Cell Contents
                           -------------------------------
                         Total number of ions in cell =   31
                      Total number of species in cell =    1
                        Max number of any one species =   31
 
            xxxxxxxxxxxxxxxxxxxxxxxxxxxxxxxxxxxxxxxxxxxxxxxxxxxxxxxxxxxx
            x                          Reactant                        x
            xxxxxxxxxxxxxxxxxxxxxxxxxxxxxxxxxxxxxxxxxxxxxxxxxxxxxxxxxxxx
            x  Element    Atom        Fractional coordinates of atoms  x
            x            Number           u          v          w      x
            x----------------------------------------------------------x
            x  Cu           1        -0.000002   0.000001   0.000000   x 
            x  Cu           2         0.999999   0.250819   0.250805   x 
            x  Cu           3         0.250818   0.999997   0.250809   x 
            x  Cu           4         0.250814   0.250816  -0.000001   x 
            x  Cu           5         0.000002  -0.000003   0.500000   x 
            x  Cu           6         0.999999   0.250819   0.749196   x 
            x  Cu           7         0.250818  -0.000002   0.749191   x 
            x  Cu           8         0.252920   0.252920   0.500000   x 
            x  Cu           9         0.999999   0.499999  -0.000000   x 
            x  Cu          10         1.000004   0.749181   0.250809   x 
            x  Cu          11         0.252916   0.500003   0.252914   x 
            x  Cu          12         0.250813   0.749184   0.000001   x 
            x  Cu          13         1.000003   0.500004   0.500000   x 
            x  Cu          14         1.000003   0.749181   0.749191   x 
            x  Cu          15         0.252916   0.500002   0.747085   x 
            x  Cu          16         0.252919   0.747080   0.500000   x 
            x  Cu          17         0.500002   0.000002   1.000001   x 
            x  Cu          18         0.500001   0.252916   0.252911   x 
            x  Cu          19         0.749182   0.000001   0.250804   x 
            x  Cu          20         0.749186   0.250815  -0.000000   x 
            x  Cu          21         0.499997  -0.000002   0.500000   x 
            x  Cu          22         0.500002   0.252917   0.747088   x 
            x  Cu          23         0.749182   0.000002   0.749195   x 
            x  Cu          24         0.747080   0.252919   0.500000   x 
            x  Cu          25         0.500001   0.499998   0.000000   x 
            x  Cu          26         0.499997   0.747083   0.252916   x 
            x  Cu          27         0.747084   0.499999   0.252910   x 
            x  Cu          28         0.749187   0.749186   0.000001   x 
            x  Cu          29         0.499997   0.747083   0.747084   x 
            x  Cu          30         0.747084   0.499998   0.747090   x 
            x  Cu          31         0.747081   0.747081   0.500000   x 
            xxxxxxxxxxxxxxxxxxxxxxxxxxxxxxxxxxxxxxxxxxxxxxxxxxxxxxxxxxxx
 
            xxxxxxxxxxxxxxxxxxxxxxxxxxxxxxxxxxxxxxxxxxxxxxxxxxxxxxxxxxxx
            x                          Product                         x
            xxxxxxxxxxxxxxxxxxxxxxxxxxxxxxxxxxxxxxxxxxxxxxxxxxxxxxxxxxxx
            x  Element    Atom        Fractional coordinates of atoms  x
            x            Number           u          v          w      x
            x----------------------------------------------------------x
            x  Cu           1         0.000827   0.000827   0.000000   x 
            x  Cu           2         0.002895   0.249953   0.252848   x 
            x  Cu           3         0.249953   0.002895   0.252848   x 
            x  Cu           4         0.249953   0.249953   0.999951   x 
            x  Cu           5         0.002895   0.002895   0.500044   x 
            x  Cu           6         0.002895   0.249953   0.747102   x 
            x  Cu           7         0.249953   0.002895   0.747102   x 
            x  Cu           8         0.497149   0.497149   0.500044   x 
            x  Cu           9         0.000827   0.499217   0.000000   x 
            x  Cu          10         0.000827   0.749997   0.250780   x 
            x  Cu          11         0.249953   0.497149   0.252848   x 
            x  Cu          12         0.249953   0.749997   0.000000   x 
            x  Cu          13         0.002895   0.497149   0.500044   x 
            x  Cu          14         0.000827   0.749997   0.749170   x 
            x  Cu          15         0.249953   0.497149   0.747102   x 
            x  Cu          16         0.249953   0.749997   0.500044   x 
            x  Cu          17         0.499217   0.000827   0.000000   x 
            x  Cu          18         0.497149   0.249953   0.252848   x 
            x  Cu          19         0.749997   0.000827   0.250780   x 
            x  Cu          20         0.749997   0.249953   0.999951   x 
            x  Cu          21         0.497149   0.002895   0.500044   x 
            x  Cu          22         0.497149   0.249953   0.747102   x 
            x  Cu          23         0.749997   0.000827   0.749170   x 
            x  Cu          24         0.749997   0.249953   0.500044   x 
            x  Cu          25         0.499217   0.499217   0.000000   x 
            x  Cu          26         0.499217   0.749997   0.250780   x 
            x  Cu          27         0.749997   0.499217   0.250780   x 
            x  Cu          28         0.749997   0.749997   0.000000   x 
            x  Cu          29         0.499217   0.749997   0.749170   x 
            x  Cu          30         0.749997   0.499217   0.749170   x 
            x  Cu          31         0.749997   0.749997   0.500044   x 
            xxxxxxxxxxxxxxxxxxxxxxxxxxxxxxxxxxxxxxxxxxxxxxxxxxxxxxxxxxxx
 
 
                         No user defined ionic velocities
 
                           -------------------------------
                                   Details of Species
                           -------------------------------
 
                               Mass of species in AMU
                                    Cu   63.5460000
 
                          Electric Quadrupole Moment (Barn)
                                    Cu   -0.2200000 Isotope 63
 
                          Files used for pseudopotentials:
                                    Cu 3|2.2|2.0|1.0|10|12|13|40:41:32(qc=6)
 
                           -------------------------------
                              k-Points For BZ Sampling
                           -------------------------------
                       MP grid size for SCF calculation is  4  4  4
                            with an offset of   0.000  0.000  0.000
                       Number of kpoints used =            32
 
                           -------------------------------
                               Symmetry and Constraints
                           -------------------------------
 
                      Maximum deviation from symmetry =  0.00000         ANG
 
                      Number of symmetry operations   =           1
         There are no ionic constraints specified or generated for this cell
                      Point group of crystal =     1: C1, 1, 1
                      Space group of crystal =   221: Pm-3m, -P 4 2 3
 
             Set iprint > 1 for details on symmetry rotations/translations
 
                         Centre of mass is NOT constrained
 
                         Number of cell constraints= 0
                         Cell constraints are:  1 2 3 4 5 6
 
                         External pressure/stress (GPa)
                          0.00000   0.00000   0.00000
                                    0.00000   0.00000
                                              0.00000
  
+---------------- MEMORY AND SCRATCH DISK ESTIMATES PER PROCESS --------------+
|                                                     Memory          Disk    |
| Baseline code, static data and system overhead      503.0 MB         0.0 MB |
| BLAS internal memory storage                          0.0 MB         0.0 MB |
| Model and support data                              175.5 MB       147.5 MB |
| Electronic energy minimisation requirements         134.9 MB         0.0 MB |
| Force calculation requirements                       12.6 MB         0.0 MB |
|                                               ----------------------------- |
| Approx. total storage required per process          813.4 MB       147.5 MB |
|                                                                             |
| Requirements will fluctuate during execution and may exceed these estimates |
+-----------------------------------------------------------------------------+
Calculating approximate eigenstates for fixed initial Hamiltonian
Cut-off for approx. calculation is   89.988 eV
Improving approx. states at cut-off of  272.114 eV
Resetting cut-off to  500.000 eV
Calculating total energy with cut-off of  500.000 eV.
------------------------------------------------------------------------ <-- SCF
SCF loop      Energy           Fermi           Energy gain       Timer   <-- SCF
                               energy          per atom          (sec)   <-- SCF
------------------------------------------------------------------------ <-- SCF
Initial  -5.30527654E+004  0.00000000E+000                        25.77  <-- SCF
      1  -5.21055362E+004  4.23104911E+000  -3.05557792E+001      38.37  <-- SCF
      2  -5.21074249E+004  4.28411900E+000   6.09261267E-002      51.67  <-- SCF
      3  -5.21080600E+004  4.32146216E+000   2.04851454E-002      62.45  <-- SCF
      4  -5.21083251E+004  4.12800890E+000   8.55238645E-003      73.07  <-- SCF
      5  -5.21078171E+004  4.12114284E+000  -1.63863459E-002      83.70  <-- SCF
      6  -5.21082577E+004  4.27007231E+000   1.42116755E-002      94.26  <-- SCF
      7  -5.21077942E+004  4.22029327E+000  -1.49521414E-002     104.87  <-- SCF
      8  -5.21078716E+004  4.18034906E+000   2.49792180E-003     115.67  <-- SCF
      9  -5.21077573E+004  4.19121966E+000  -3.68908024E-003     126.34  <-- SCF
     10  -5.21077622E+004  4.18418240E+000   1.58718321E-004     136.97  <-- SCF
     11  -5.21077858E+004  4.18750939E+000   7.60543839E-004     147.63  <-- SCF
     12  -5.21077681E+004  4.18479940E+000  -5.70408937E-004     158.28  <-- SCF
     13  -5.21077680E+004  4.18458397E+000  -1.87856351E-006     168.90  <-- SCF
     14  -5.21077676E+004  4.18546800E+000  -1.17320076E-005     179.47  <-- SCF
     15  -5.21077694E+004  4.18482137E+000   5.55438666E-005     190.04  <-- SCF
     16  -5.21077666E+004  4.18449085E+000  -8.81512805E-005     200.58  <-- SCF
     17  -5.21077667E+004  4.18581187E+000   3.12648769E-006     208.00  <-- SCF
     18  -5.21077667E+004  4.18470810E+000  -5.24801091E-007     215.41  <-- SCF
------------------------------------------------------------------------ <-- SCF
 
Integrated Spin Density     =   -0.149373E-02 hbar/2                        
Integrated |Spin Density|   =    0.397849E-02 hbar/2                        
 
Final energy, E             =  -52107.55388442     eV
Final free energy (E-TS)    =  -52107.76671868     eV
(energies not corrected for finite basis set)
 
NB est. 0K energy (E-0.5TS)      =  -52107.66030155     eV
 

Writing analysis data to CuVac.castep_bin

Writing model to CuVac.check
++++++++++++++++++++++++++++++++++++++++++++++++++++++++++++++++++++++++++++++++
+++++++++++++++++++++++ Starting Transition State Search +++++++++++++++++++++++
++++++++++++++++++++++++++++++++++++++++++++++++++++++++++++++++++++++++++++++++
 
 =====================================================================
 |                                                                   |
 |                  Nudged Elastic Band optimization                 |
 |                                                                   |
 =====================================================================

     NEB elastic constant:      0.001029 Hartree/Bohr^2
Optimisation algorithm:     ode12r                                                                                                                                                                                                                                                          
Tangent mode:     Spline interpolation                                                                                                                                                                                                                                            
 Number of task farms to use:           1
  --- Initialising NEB constraints ---
     Fixed            0  degrees of freedom
     Using            0  Lagrange multipliers
 
 *Warning* max. SCF cycles performed but system has not reached the groundstate.
  
Current total energy, E     =  -54432.86225806     eV
Current free energy (E-TS)  =  -54433.14619187     eV
(energies not corrected for finite basis set)
 
NB est. 0K energy (E-0.5TS)      =  -54433.00422496     eV
 
  ****************************************************************************
  Warning: electronic minimisation did not converge when finding ground state.
  ****************************************************************************
 +-------------------------------------------------+
 |                                                 |
 |      CCC   AA    SSS  TTTTT  EEEEE  PPPP        |
 |     C     A  A  S       T    E      P   P       |
 |     C     AAAA   SS     T    EEE    PPPP        |
 |     C     A  A     S    T    E      P           |
 |      CCC  A  A  SSS     T    EEEEE  P           |
 |                                                 |
 +-------------------------------------------------+
 |                                                 |
 | Welcome to Academic Release CASTEP version 21.1 |          
 | Ab Initio Total Energy Program                  |
 |                                                 |
 | Authors:                                        |
 | M. Segall, M. Probert, C. Pickard, P. Hasnip,   |
 | S. Clark, K. Refson, J. R. Yates, M. Payne      |
 |                                                 |
 | Contributors:                                   |
 | P. Lindan, P. Haynes, J. White, V. Milman,      |
 | N. Govind, M. Gibson, P. Tulip, V. Cocula,      |
 | B. Montanari, D. Quigley, M. Glover,            |
 | L. Bernasconi, A. Perlov, M. Plummer,           |
 | E. McNellis, J. Meyer, J. Gale, D. Jochym       |
 | J. Aarons, B. Walker, R. Gillen, D. Jones       |
 | T. Green, I. J. Bush, C. J. Armstrong,          |
 | E. J. Higgins, E. L. Brown, M. S. McFly,        |
 | J. Wilkins, B-C. Shih, P. J. P. Byrne,          |
 | R. J. Maurer, J. C. Womack, J. Dziedzic,        |
 | A. Bartok-Partay, L. LeBlanc, T. K. Stenczel    |
 |                                                 |
 | Copyright (c) 2000 - 2020                       |
 |                                                 |
 |     Distributed under license from Cambridge    |
 |     Enterprise for academic use only.           |
 |                                                 |
 | Please cite                                     |
 |                                                 |
 |     "First principles methods using CASTEP"     |
 |                                                 |
 |         Zeitschrift fuer Kristallographie       |
 |           220(5-6) pp. 567-570 (2005)           |
 |                                                 |
 | S. J. Clark, M. D. Segall, C. J. Pickard,       |
 | P. J. Hasnip, M. J. Probert, K. Refson,         |
 | M. C. Payne                                     |
 |                                                 |
 |       in all publications arising from          |
 |              your use of CASTEP                 |
 |                                                 |
 +-------------------------------------------------+
 |                                                 |
 |              http://www.castep.org              |
 |                                                 |
 +-------------------------------------------------+
 
 
 
 Compiled for linux_x86_64_ifort on Wed, 11 Aug 2021 15:16:06 +0100
 from code version 
 b9537cc+  new-neb-implementation  Wed Aug 11 15:07:38 2021 +0100
 Compiler: Intel Fortran 18.0.3.222; Optimisation: fast
 MATHLIBS: Intel MKL(2018.0.3) (LAPACK version 3.7.0)
 FFT Lib : default
 Fundamental constants values: CODATA 2014
 
 Run started: Thu, 12 Aug 2021 10:49:05 +0100

 ******************************* User Parameters *******************************
iprint                : 2                     # verbosity control (I)
task                  : transitionstatesearch # type of calculation (S)
writecellstructure    : T                     # output final structure in CELL format (L)
xcfunctional          : pbe                   # exchange-correlation functional (S)
cutoffenergy          : 500.0000000 ev        # maximum energy of planewaves in basis set (P)
maxscfcycles          : 100                   # maximum SCF cycles (I)
tssearchmethod        : neb                   # TS search method (S)
tssearchmaxpathpoints : 11                    # max number of path points in NEB search (I)
tssearchnebmaxiter    : 100                   # max steps in NEB search (I)
tssearchnebclimbing   : T                     # climbing central bead in NEB search (L)

 *******************************************************************************
  
 
 Atomic calculation performed for Cu: 1s2 2s2 2p6 3s2 3p6 3d10 4s1
 
 Converged in 145 iterations to an ae energy of -45030.712 eV
 
    == Comparison of all-electron and pseudo eig ===
    ==         taken from descreening step.      ===
    == A more accurate error estimate is given   ===
    == by using the scf pseudo test -            ===
    == add [] to end of otfg string to activate  ===
    AE l  no    occ        eig (Ha)                 
    PS l  no               eig (Ha)         diff    
    ================================================
    ae 0   4   1.000    -0.1694164956
    ps 0   4            -0.1694170269    -0.5313E-06
    ae 2   1  10.000    -0.1851745650
    ps 2   1            -0.1851749001    -0.3351E-06
    ================================================
   ============================================================                
   | Pseudopotential Report - Date of generation 12-08-2021   |                
   ------------------------------------------------------------                
   | Element: Cu Ionic charge: 11.00 Level of theory: PBE     |                
   | Atomic Solver: Koelling-Harmon                           |                
   |                                                          |                
   |               Reference Electronic Structure             |                
   |         Orbital         Occupation         Energy        |                
   |            3d             10.000           -0.185        |                
   |            4s              1.000           -0.169        |                
   |                                                          |                
   |                 Pseudopotential Definition               |                
   |        Beta     l      e      Rc     scheme   norm       |                
   |          1      0   -0.169   1.996     qc      0         |                
   |          2      0    0.250   1.996     qc      0         |                
   |          3      1    0.000   1.996     qc      0         |                
   |          4      1    0.250   1.996     qc      0         |                
   |          5      2   -0.185   1.996     qc      0         |                
   |          6      2    0.250   1.996     qc      0         |                
   |         loc     3    0.000   2.206     pn      0         |                
   |                                                          |                
   | Augmentation charge Rinner = 0.999                       |                
   | Partial core correction Rc = 0.999                       |                
   ------------------------------------------------------------                
   | "3|2.2|2.0|1.0|10|12|13|40:41:32(qc=6)"                  |                
   ------------------------------------------------------------                
   |      Author: Chris J. Pickard, Cambridge University      |                
   ============================================================                
 
 Pseudo atomic calculation performed for Cu 3d10 4s1
 
 Converged in 49 iterations to a total energy of -1676.8614 eV
Initialising basis set.
 
Standard grid dimensions:  48  48  48
Fine grid dimensions:      48  48  48
 
Plane wave load balancing: max   9696 min   9674 average   9685
True cut-off energy of basis :  18.365
 Calculation parallelised over 16 processes.
 Data is distributed by k-point(16-way)

 ************************************ Title ************************************
 

 ***************************** General Parameters ******************************
  
 output verbosity                               : verbose (2)
 write checkpoint data to                       : CuVac.check
 type of calculation                            : transition state search
 stress calculation                             : off
 density difference calculation                 : off
 electron localisation func (ELF) calculation   : off
 Hirshfeld analysis                             : off
 polarisation (Berry phase) analysis            : off
 molecular orbital projected DOS                : off
 deltaSCF calculation                           : off
 unlimited duration calculation
 timing information                             : on
 memory usage estimate                          : on
 write extra output files                       : on
 write final potential to formatted file        : off
 write final density to formatted file          : off
 write structure in CELL formatted file         : on
 write BibTeX reference list                    : on
 write OTFG pseudopotential files               : on
 write electrostatic potential file             : on
 write bands file                               : on
 checkpoint writing                             : both castep_bin and check files
  
 output         length unit                     : A
 output           mass unit                     : amu
 output           time unit                     : ps
 output         charge unit                     : e
 output           spin unit                     : hbar/2
 output         energy unit                     : eV
 output          force unit                     : eV/A
 output       velocity unit                     : A/ps
 output       pressure unit                     : GPa
 output     inv_length unit                     : 1/A
 output      frequency unit                     : cm-1
 output force constant unit                     : eV/A**2
 output         volume unit                     : A**3
 output   IR intensity unit                     : (D/A)**2/amu
 output         dipole unit                     : D
 output         efield unit                     : eV/A/e
 output        entropy unit                     : J/mol/K
 output    efield chi2 unit                     : pm/V
  
 wavefunctions paging                           : none
 random number generator seed                   : randomised (104905889)
 data distribution                              : optimal for this architecture
 optimization strategy                          : balance speed and memory

 *********************** Exchange-Correlation Parameters ***********************
  
 using functional                               : Perdew Burke Ernzerhof
 relativistic treatment                         : Koelling-Harmon
 DFT+D: Semi-empirical dispersion correction    : off

 ************************* Pseudopotential Parameters **************************
  
 pseudopotential representation                 : reciprocal space
 <beta|phi> representation                      : reciprocal space
 spin-orbit coupling                            : off

 **************************** Basis Set Parameters *****************************
  
 plane wave basis set cut-off                   :   500.0000   eV
 size of standard grid                          :     1.7500
 size of   fine   gmax                          :    20.0476   1/A
 finite basis set correction                    : none

 **************************** Electronic Parameters ****************************
  
 number of  electrons                           :  341.0    
 net charge of system                           :  0.000    
 net spin   of system                           :  1.000    
 number of  up  spins                           :  171.0    
 number of down spins                           :  170.0    
 treating system as spin-polarized
 number of bands                                :        205

 ********************* Electronic Minimization Parameters **********************
  
 Method: Treating system as metallic with density mixing treatment of electrons,
         and number of  SD  steps               :          1
         and number of  CG  steps               :          4
  
 total energy / atom convergence tol.           : 0.1000E-04   eV
 eigen-energy convergence tolerance             : 0.1000E-05   eV
 max force / atom convergence tol.              : ignored
 convergence tolerance window                   :          3   cycles
 max. number of SCF cycles                      :        100
 number of fixed-spin iterations                :         10
 smearing scheme                                : Gaussian
 smearing width                                 : 0.2000       eV
 Fermi energy convergence tolerance             : 0.2721E-13   eV
 periodic dipole correction                     : NONE

 ************************** Density Mixing Parameters **************************
  
 density-mixing scheme                          : Broyden
 max. length of mixing history                  :         20
 charge density mixing amplitude                : 0.8000    
   spin density mixing amplitude                :  2.000    
 cut-off energy for mixing                      :  500.0       eV

 *********************** Population Analysis Parameters ************************
  
 Population analysis with cutoff                :  3.000       A
 Population analysis output                     : summary and pdos components

 ********************* Transition State Search Parameters **********************
  
 search method                                  : NEB   
 max. ionic |force| tolerance                   : 0.5000E-01   eV/A
 max. ionic |displacement| tolerance            : 0.1000E-02   A
 max. ionic |energy| tolerance                  : 0.2000E-04   eV
 NEB method                                     : ODE12R    
 max. number of NEB iterations                  :        100
 max. number of path points                     :         11
 inter-bead spring constant                     : 0.1000       eV/A**2
 tangent mode                                   : SPLINE    
 central bead is                                : climbing up

 *******************************************************************************
  
 
                           -------------------------------
                                      Unit Cell
                           -------------------------------
        Real Lattice(A)                      Reciprocal Lattice(1/A)
     7.2533590     0.0000000     0.0000000        0.866244909   0.000000000   0.000000000
     0.0000000     7.2533590     0.0000000        0.000000000   0.866244909   0.000000000
     0.0000000     0.0000000     7.2533590        0.000000000   0.000000000   0.866244909
 
                       Lattice parameters(A)       Cell Angles
                    a =      7.253359          alpha =   90.000000
                    b =      7.253359          beta  =   90.000000
                    c =      7.253359          gamma =   90.000000
 
                       Current cell volume =           381.608043       A**3
                                   density =             5.162171   AMU/A**3
                                           =             8.571987     g/cm^3
 
                           -------------------------------
                                     Cell Contents
                           -------------------------------
                         Total number of ions in cell =   31
                      Total number of species in cell =    1
                        Max number of any one species =   31
 
            xxxxxxxxxxxxxxxxxxxxxxxxxxxxxxxxxxxxxxxxxxxxxxxxxxxxxxxxxxxx
            x                          Reactant                        x
            xxxxxxxxxxxxxxxxxxxxxxxxxxxxxxxxxxxxxxxxxxxxxxxxxxxxxxxxxxxx
            x  Element    Atom        Fractional coordinates of atoms  x
            x            Number           u          v          w      x
            x----------------------------------------------------------x
            x  Cu           1        -0.000002   0.000001   0.000000   x 
            x  Cu           2         0.999999   0.250819   0.250805   x 
            x  Cu           3         0.250818   0.999997   0.250809   x 
            x  Cu           4         0.250814   0.250816  -0.000001   x 
            x  Cu           5         0.000002  -0.000003   0.500000   x 
            x  Cu           6         0.999999   0.250819   0.749196   x 
            x  Cu           7         0.250818  -0.000002   0.749191   x 
            x  Cu           8         0.252920   0.252920   0.500000   x 
            x  Cu           9         0.999999   0.499999  -0.000000   x 
            x  Cu          10         1.000004   0.749181   0.250809   x 
            x  Cu          11         0.252916   0.500003   0.252914   x 
            x  Cu          12         0.250813   0.749184   0.000001   x 
            x  Cu          13         1.000003   0.500004   0.500000   x 
            x  Cu          14         1.000003   0.749181   0.749191   x 
            x  Cu          15         0.252916   0.500002   0.747085   x 
            x  Cu          16         0.252919   0.747080   0.500000   x 
            x  Cu          17         0.500002   0.000002   1.000001   x 
            x  Cu          18         0.500001   0.252916   0.252911   x 
            x  Cu          19         0.749182   0.000001   0.250804   x 
            x  Cu          20         0.749186   0.250815  -0.000000   x 
            x  Cu          21         0.499997  -0.000002   0.500000   x 
            x  Cu          22         0.500002   0.252917   0.747088   x 
            x  Cu          23         0.749182   0.000002   0.749195   x 
            x  Cu          24         0.747080   0.252919   0.500000   x 
            x  Cu          25         0.500001   0.499998   0.000000   x 
            x  Cu          26         0.499997   0.747083   0.252916   x 
            x  Cu          27         0.747084   0.499999   0.252910   x 
            x  Cu          28         0.749187   0.749186   0.000001   x 
            x  Cu          29         0.499997   0.747083   0.747084   x 
            x  Cu          30         0.747084   0.499998   0.747090   x 
            x  Cu          31         0.747081   0.747081   0.500000   x 
            xxxxxxxxxxxxxxxxxxxxxxxxxxxxxxxxxxxxxxxxxxxxxxxxxxxxxxxxxxxx
 
            xxxxxxxxxxxxxxxxxxxxxxxxxxxxxxxxxxxxxxxxxxxxxxxxxxxxxxxxxxxx
            x                          Product                         x
            xxxxxxxxxxxxxxxxxxxxxxxxxxxxxxxxxxxxxxxxxxxxxxxxxxxxxxxxxxxx
            x  Element    Atom        Fractional coordinates of atoms  x
            x            Number           u          v          w      x
            x----------------------------------------------------------x
            x  Cu           1         0.000827   0.000827   0.000000   x 
            x  Cu           2         0.002895   0.249953   0.252848   x 
            x  Cu           3         0.249953   0.002895   0.252848   x 
            x  Cu           4         0.249953   0.249953   0.999951   x 
            x  Cu           5         0.002895   0.002895   0.500044   x 
            x  Cu           6         0.002895   0.249953   0.747102   x 
            x  Cu           7         0.249953   0.002895   0.747102   x 
            x  Cu           8         0.497149   0.497149   0.500044   x 
            x  Cu           9         0.000827   0.499217   0.000000   x 
            x  Cu          10         0.000827   0.749997   0.250780   x 
            x  Cu          11         0.249953   0.497149   0.252848   x 
            x  Cu          12         0.249953   0.749997   0.000000   x 
            x  Cu          13         0.002895   0.497149   0.500044   x 
            x  Cu          14         0.000827   0.749997   0.749170   x 
            x  Cu          15         0.249953   0.497149   0.747102   x 
            x  Cu          16         0.249953   0.749997   0.500044   x 
            x  Cu          17         0.499217   0.000827   0.000000   x 
            x  Cu          18         0.497149   0.249953   0.252848   x 
            x  Cu          19         0.749997   0.000827   0.250780   x 
            x  Cu          20         0.749997   0.249953   0.999951   x 
            x  Cu          21         0.497149   0.002895   0.500044   x 
            x  Cu          22         0.497149   0.249953   0.747102   x 
            x  Cu          23         0.749997   0.000827   0.749170   x 
            x  Cu          24         0.749997   0.249953   0.500044   x 
            x  Cu          25         0.499217   0.499217   0.000000   x 
            x  Cu          26         0.499217   0.749997   0.250780   x 
            x  Cu          27         0.749997   0.499217   0.250780   x 
            x  Cu          28         0.749997   0.749997   0.000000   x 
            x  Cu          29         0.499217   0.749997   0.749170   x 
            x  Cu          30         0.749997   0.499217   0.749170   x 
            x  Cu          31         0.749997   0.749997   0.500044   x 
            xxxxxxxxxxxxxxxxxxxxxxxxxxxxxxxxxxxxxxxxxxxxxxxxxxxxxxxxxxxx
 
 
                         No user defined ionic velocities
 
                           -------------------------------
                                   Details of Species
                           -------------------------------
 
                               Mass of species in AMU
                                    Cu   63.5460000
 
                          Electric Quadrupole Moment (Barn)
                                    Cu   -0.2200000 Isotope 63
 
                          Files used for pseudopotentials:
                                    Cu 3|2.2|2.0|1.0|10|12|13|40:41:32(qc=6)
 
                           -------------------------------
                              k-Points For BZ Sampling
                           -------------------------------
                       MP grid size for SCF calculation is  4  4  4
                            with an offset of   0.000  0.000  0.000
                       Number of kpoints used =            32
 
             +++++++++++++++++++++++++++++++++++++++++++++++++++++++
             +  Number       Fractional coordinates        Weight  +
             +-----------------------------------------------------+
             +     1  -0.375000  -0.375000  -0.375000   0.0312500  +
             +     2  -0.375000  -0.375000  -0.125000   0.0312500  +
             +     3  -0.375000  -0.375000   0.125000   0.0312500  +
             +     4  -0.375000  -0.125000   0.125000   0.0312500  +
             +     5  -0.375000   0.125000  -0.375000   0.0312500  +
             +     6  -0.375000   0.125000   0.125000   0.0312500  +
             +     7  -0.375000   0.375000  -0.375000   0.0312500  +
             +     8  -0.375000   0.375000   0.125000   0.0312500  +
             +     9  -0.375000   0.375000   0.375000   0.0312500  +
             +    10  -0.125000  -0.375000  -0.375000   0.0312500  +
             +    11  -0.125000  -0.375000  -0.125000   0.0312500  +
             +    12  -0.125000  -0.375000   0.125000   0.0312500  +
             +    13  -0.125000  -0.375000   0.375000   0.0312500  +
             +    14  -0.125000  -0.125000  -0.375000   0.0312500  +
             +    15  -0.125000   0.375000   0.375000   0.0312500  +
             +    16   0.125000  -0.375000  -0.125000   0.0312500  +
             +    17   0.125000  -0.375000   0.125000   0.0312500  +
             +    18   0.125000  -0.375000   0.375000   0.0312500  +
             +    19   0.125000  -0.125000  -0.375000   0.0312500  +
             +    20   0.125000  -0.125000  -0.125000   0.0312500  +
             +    21   0.125000  -0.125000   0.125000   0.0312500  +
             +    22   0.125000  -0.125000   0.375000   0.0312500  +
             +    23   0.125000   0.125000  -0.375000   0.0312500  +
             +    24   0.125000   0.125000  -0.125000   0.0312500  +
             +    25   0.125000   0.125000   0.125000   0.0312500  +
             +    26   0.375000  -0.375000   0.125000   0.0312500  +
             +    27   0.375000  -0.125000  -0.375000   0.0312500  +
             +    28   0.375000  -0.125000   0.125000   0.0312500  +
             +    29   0.375000   0.125000  -0.375000   0.0312500  +
             +    30   0.375000   0.125000   0.125000   0.0312500  +
             +    31   0.375000   0.125000   0.375000   0.0312500  +
             +    32   0.375000   0.375000  -0.375000   0.0312500  +
             +++++++++++++++++++++++++++++++++++++++++++++++++++++++
 
                           -------------------------------
                               Symmetry and Constraints
                           -------------------------------
 
                      Maximum deviation from symmetry =  0.00000         ANG
 
                      Number of symmetry operations   =           1
         There are no ionic constraints specified or generated for this cell
                      Point group of crystal =     1: C1, 1, 1
                      Space group of crystal =   221: Pm-3m, -P 4 2 3
 
                    1 rotation    
                 (   1.00000000000   0.00000000000   0.00000000000 )
                 (   0.00000000000   1.00000000000   0.00000000000 )
                 (   0.00000000000   0.00000000000   1.00000000000 )
                    1 displacement
                 (   0.00000000000   0.00000000000   0.00000000000 )
                      symmetry related atoms: 
             Cu:    1    2    3    4    5    6    7    8    9   10   11   12   13   14   15   16   17   18   19   20   21   22   23   24   25   26   27   28   29   30   31
 
 
                         Centre of mass is NOT constrained
                       No ionic constraints specified
 
                         Number of cell constraints= 0
                         Cell constraints are:  1 2 3 4 5 6
 
                         External pressure/stress (GPa)
                          0.00000   0.00000   0.00000
                                    0.00000   0.00000
                                              0.00000
  
+---------------- MEMORY AND SCRATCH DISK ESTIMATES PER PROCESS --------------+
|                                                     Memory          Disk    |
| Baseline code, static data and system overhead      516.0 MB         0.0 MB |
| BLAS internal memory storage                          0.0 MB         0.0 MB |
| Model and support data                              329.8 MB       294.8 MB |
| Electronic energy minimisation requirements         394.4 MB         0.0 MB |
| Force calculation requirements                       24.5 MB         0.0 MB |
|                                               ----------------------------- |
| Approx. total storage required per process         1240.2 MB       294.8 MB |
|                                                                             |
| Requirements will fluctuate during execution and may exceed these estimates |
+-----------------------------------------------------------------------------+
Calculating approximate eigenstates for fixed initial Hamiltonian
Cut-off for approx. calculation is   89.988 eV
Initialising basis set.
 
Standard grid dimensions:  20  20  20
Fine grid dimensions:      48  48  48
 
Plane wave load balancing: max    744 min    729 average    737
True cut-off energy of basis :   3.301
Improving approx. states at cut-off of  272.114 eV
Initialising basis set.
 
Standard grid dimensions:  36  36  36
Fine grid dimensions:      48  48  48
 
Plane wave load balancing: max   3900 min   3887 average   3894
True cut-off energy of basis :   9.999
Refining calculation on full k-point grid
Resetting cut-off to  500.000 eV
Initialising basis set.
 
Standard grid dimensions:  48  48  48
Fine grid dimensions:      48  48  48
 
Plane wave load balancing: max   9696 min   9674 average   9685
True cut-off energy of basis :  18.365
Fermi energy for up electrons =  6.1518E+000 eV [lower bound; range =  2.00E-014 eV]
Fermi energy for down electrons =  6.0876E+000 eV [lower bound; range =  2.01E-014 eV]
Calculating total energy with cut-off of  500.000 eV.
electronic_minimisation: Initialising density mixing
 
Init
Total free energy (E-TS)         =    -53002.28403544436878292 eV
 
NB est. 0K energy (E-0.5TS)      =    -53002.28403544436878292 eV
------------------------------------------------------------------------ <-- SCF
SCF loop      Energy           Fermi           Energy gain       Timer   <-- SCF
                               energy          per atom          (sec)   <-- SCF
------------------------------------------------------------------------ <-- SCF
Initial  -5.30022840E+004  0.00000000E+000                        87.24  <-- SCF
Fermi energy for up electrons =  4.4166E+000 eV [lower bound; range =  1.75E-014 eV]
Fermi energy for down electrons =  4.2450E+000 eV [lower bound; range =  1.75E-014 eV]
      1  -5.21063871E+004  4.33103111E+000  -2.88999018E+001     133.31  <-- SCF
 Density was not mixed in this cycle
Fermi energy for up electrons =  4.4372E+000 eV [lower bound; range =  1.73E-014 eV]
Fermi energy for down electrons =  4.2752E+000 eV [lower bound; range =  1.73E-014 eV]
      2  -5.21074773E+004  4.35639369E+000   3.51678535E-002     183.78  <-- SCF
 Norm of density residual is   5.919335485467204E-002
Fermi energy for up electrons =  4.2602E+000 eV [lower bound; range =  1.72E-014 eV]
Fermi energy for down electrons =  4.0969E+000 eV [lower bound; range =  1.72E-014 eV]
      3  -5.21078361E+004  4.17881028E+000   1.15734573E-002     221.72  <-- SCF
 Norm of density residual is   3.060805016489324E-002
Fermi energy for up electrons =  4.3677E+000 eV [lower bound; range =  1.73E-014 eV]
Fermi energy for down electrons =  4.2134E+000 eV [lower bound; range =  1.73E-014 eV]
      4  -5.21083433E+004  4.29079744E+000   1.63610321E-002     256.57  <-- SCF
 Norm of density residual is   7.521644169166491E-002
Fermi energy for up electrons =  4.3105E+000 eV [lower bound; range =  1.72E-014 eV]
Fermi energy for down electrons =  4.1518E+000 eV [lower bound; range =  1.72E-014 eV]
      5  -5.21077446E+004  4.23138708E+000  -1.93118373E-002     291.15  <-- SCF
 Norm of density residual is   1.556461183844180E-002
Fermi energy for up electrons =  4.2069E+000 eV [lower bound; range =  1.72E-014 eV]
Fermi energy for down electrons =  4.0422E+000 eV [lower bound; range =  1.72E-014 eV]
      6  -5.21079362E+004  4.12475222E+000   6.18251545E-003     324.86  <-- SCF
 Norm of density residual is   4.104303166718293E-002
Fermi energy for up electrons =  4.2462E+000 eV [lower bound; range =  1.72E-014 eV]
Fermi energy for down electrons =  4.0838E+000 eV [lower bound; range =  1.72E-014 eV]
      7  -5.21077341E+004  4.16523628E+000  -6.51918640E-003     359.11  <-- SCF
 Norm of density residual is   1.050098002903458E-002
Fermi energy for up electrons =  4.2812E+000 eV [lower bound; range =  1.72E-014 eV]
Fermi energy for down electrons =  4.1217E+000 eV [lower bound; range =  1.72E-014 eV]
      8  -5.21077711E+004  4.20169970E+000   1.19178302E-003     405.26  <-- SCF
 Norm of density residual is   1.971909382939917E-002
Fermi energy for up electrons =  4.2648E+000 eV [lower bound; range =  1.72E-014 eV]
Fermi energy for down electrons =  4.1037E+000 eV [lower bound; range =  1.72E-014 eV]
      9  -5.21077252E+004  4.18450994E+000  -1.48124933E-003     446.43  <-- SCF
 Norm of density residual is   8.880666248451035E-004
spin_fix iterations performed -- now freeing the spin
     10  -5.21077611E+004  4.18435691E+000   1.15991149E-003     477.39  <-- SCF
 Norm of density residual is   5.869652341935527E-003
     11  -5.21077634E+004  4.18609553E+000   7.43317047E-005     518.89  <-- SCF
 Norm of density residual is   5.345185166576191E-003
     12  -5.21077689E+004  4.18445850E+000   1.76050700E-004     557.03  <-- SCF
 Norm of density residual is   4.423675220641326E-003
     13  -5.21077693E+004  4.18508656E+000   1.45096301E-005     597.35  <-- SCF
 Norm of density residual is   4.923528871949606E-003
     14  -5.21077666E+004  4.18537904E+000  -8.70701785E-005     633.63  <-- SCF
 Norm of density residual is   4.391526969669227E-004
     15  -5.21077668E+004  4.18423987E+000   5.70923721E-006     658.19  <-- SCF
 Norm of density residual is   9.964944482405646E-004
     16  -5.21077667E+004  4.18477678E+000  -3.55283082E-006     683.96  <-- SCF
 Norm of density residual is   2.567265103451084E-004
------------------------------------------------------------------------ <-- SCF
Total energy has converged after 16 SCF iterations.
 
Integrated Spin Density     =    0.524707E-02 hbar/2                        
Integrated |Spin Density|   =    0.878962E-02 hbar/2                        
 
Final energy, E             =  -52107.55388202     eV
Final free energy (E-TS)    =  -52107.76671115     eV
(energies not corrected for finite basis set)
 
NB est. 0K energy (E-0.5TS)      =  -52107.66029659     eV
 
There are 205 bands in total at each k-point and spin
Bands below band 163 are completely full                          <- occ
Bands above band 179 are completely empty                         <- occ
Band energies and occupancies for bands close to Fermi energy     <- occ
Smearing width is  0.200 eV                                       <- occ
Spin 1, kpoint (-0.375000 -0.375000 -0.375000 ) weight = 0.031250
+--------+-------------------+----------------+
|  Band  |   Eigenvalue      |    Occupancy   |                   <- occ
+--------+-------------------+----------------+                   <- occ
|   163  |   0.268256E+01    |   1.00000      |                   <- occ
|   164  |   0.379917E+01    |  0.996801      |                   <- occ
|   165  |   0.379924E+01    |  0.996796      |                   <- occ
|   166  |   0.389580E+01    |  0.979493      |                   <- occ
|   167  |   0.437759E+01    |  0.863809E-01  |                   <- occ
|   168  |   0.437774E+01    |  0.862100E-01  |                   <- occ
|   169  |   0.447833E+01    |  0.189597E-01  |                   <- occ
|   170  |   0.452367E+01    |  0.828014E-02  |                   <- occ
|   171  |   0.452385E+01    |  0.825171E-02  |                   <- occ
|   172  |   0.470354E+01    |  0.122126E-03  |                   <- occ
|   173  |   0.492650E+01    |  0.782403E-07  |                   <- occ
|   174  |   0.494321E+01    |  0.409423E-07  |                   <- occ
|   175  |   0.494336E+01    |  0.407058E-07  |                   <- occ
|   176  |   0.544593E+01    |   0.00000      |                   <- occ
|   177  |   0.551820E+01    |   0.00000      |                   <- occ
|   178  |   0.551828E+01    |   0.00000      |                   <- occ
|   179  |   0.620644E+01    |   0.00000      |                   <- occ
+--------+-------------------+----------------+                   <- occ
Spin 1, kpoint ( 0.125000 -0.375000  0.125000 ) weight = 0.031250
+--------+-------------------+----------------+
|  Band  |   Eigenvalue      |    Occupancy   |                   <- occ
+--------+-------------------+----------------+                   <- occ
|   163  |   0.276196E+01    |   1.00000      |                   <- occ
|   164  |   0.286645E+01    |   1.00000      |                   <- occ
|   165  |   0.294059E+01    |   1.00000      |                   <- occ
|   166  |   0.312024E+01    |   1.00000      |                   <- occ
|   167  |   0.321877E+01    |   1.00000      |                   <- occ
|   168  |   0.329067E+01    |   1.00000      |                   <- occ
|   169  |   0.386145E+01    |  0.988881      |                   <- occ
|   170  |   0.389728E+01    |  0.978968      |                   <- occ
|   171  |   0.394411E+01    |  0.955600      |                   <- occ
|   172  |   0.410444E+01    |  0.715002      |                   <- occ
|   173  |   0.428481E+01    |  0.239679      |                   <- occ
|   174  |   0.477396E+01    |  0.154870E-04  |                   <- occ
|   175  |   0.503222E+01    |  0.103440E-08  |                   <- occ
|   176  |   0.522359E+01    |  0.102474E-12  |                   <- occ
|   177  |   0.537002E+01    |   0.00000      |                   <- occ
|   178  |   0.644818E+01    |   0.00000      |                   <- occ
|   179  |   0.662143E+01    |   0.00000      |                   <- occ
+--------+-------------------+----------------+                   <- occ
Spin 1, kpoint (-0.375000 -0.375000 -0.125000 ) weight = 0.031250
+--------+-------------------+----------------+
|  Band  |   Eigenvalue      |    Occupancy   |                   <- occ
+--------+-------------------+----------------+                   <- occ
|   163  |   0.265764E+01    |   1.00000      |                   <- occ
|   164  |   0.281215E+01    |   1.00000      |                   <- occ
|   165  |   0.323803E+01    |   1.00000      |                   <- occ
|   166  |   0.326915E+01    |   1.00000      |                   <- occ
|   167  |   0.342369E+01    |   1.00000      |                   <- occ
|   168  |   0.346202E+01    |   1.00000      |                   <- occ
|   169  |   0.353093E+01    |  0.999998      |                   <- occ
|   170  |   0.428876E+01    |  0.231093      |                   <- occ
|   171  |   0.430401E+01    |  0.199577      |                   <- occ
|   172  |   0.493491E+01    |  0.565656E-07  |                   <- occ
|   173  |   0.493920E+01    |  0.478879E-07  |                   <- occ
|   174  |   0.530330E+01    |  0.127676E-14  |                   <- occ
|   175  |   0.531114E+01    |  0.832667E-15  |                   <- occ
|   176  |   0.546183E+01    |   0.00000      |                   <- occ
|   177  |   0.551914E+01    |   0.00000      |                   <- occ
|   178  |   0.593333E+01    |   0.00000      |                   <- occ
|   179  |   0.602556E+01    |   0.00000      |                   <- occ
+--------+-------------------+----------------+                   <- occ
Spin 1, kpoint ( 0.125000 -0.375000  0.375000 ) weight = 0.031250
+--------+-------------------+----------------+
|  Band  |   Eigenvalue      |    Occupancy   |                   <- occ
+--------+-------------------+----------------+                   <- occ
|   163  |   0.265766E+01    |   1.00000      |                   <- occ
|   164  |   0.281218E+01    |   1.00000      |                   <- occ
|   165  |   0.323806E+01    |   1.00000      |                   <- occ
|   166  |   0.326910E+01    |   1.00000      |                   <- occ
|   167  |   0.342371E+01    |   1.00000      |                   <- occ
|   168  |   0.346211E+01    |   1.00000      |                   <- occ
|   169  |   0.353084E+01    |  0.999998      |                   <- occ
|   170  |   0.428864E+01    |  0.231342      |                   <- occ
|   171  |   0.430418E+01    |  0.199257      |                   <- occ
|   172  |   0.493498E+01    |  0.564109E-07  |                   <- occ
|   173  |   0.493914E+01    |  0.479977E-07  |                   <- occ
|   174  |   0.530332E+01    |  0.127676E-14  |                   <- occ
|   175  |   0.531112E+01    |  0.832667E-15  |                   <- occ
|   176  |   0.546181E+01    |   0.00000      |                   <- occ
|   177  |   0.551910E+01    |   0.00000      |                   <- occ
|   178  |   0.593340E+01    |   0.00000      |                   <- occ
|   179  |   0.602554E+01    |   0.00000      |                   <- occ
+--------+-------------------+----------------+                   <- occ
Spin 1, kpoint (-0.375000 -0.375000  0.125000 ) weight = 0.031250
+--------+-------------------+----------------+
|  Band  |   Eigenvalue      |    Occupancy   |                   <- occ
+--------+-------------------+----------------+                   <- occ
|   163  |   0.265764E+01    |   1.00000      |                   <- occ
|   164  |   0.281215E+01    |   1.00000      |                   <- occ
|   165  |   0.323803E+01    |   1.00000      |                   <- occ
|   166  |   0.326915E+01    |   1.00000      |                   <- occ
|   167  |   0.342369E+01    |   1.00000      |                   <- occ
|   168  |   0.346202E+01    |   1.00000      |                   <- occ
|   169  |   0.353093E+01    |  0.999998      |                   <- occ
|   170  |   0.428876E+01    |  0.231093      |                   <- occ
|   171  |   0.430401E+01    |  0.199577      |                   <- occ
|   172  |   0.493491E+01    |  0.565666E-07  |                   <- occ
|   173  |   0.493920E+01    |  0.478883E-07  |                   <- occ
|   174  |   0.530330E+01    |  0.127676E-14  |                   <- occ
|   175  |   0.531114E+01    |  0.832667E-15  |                   <- occ
|   176  |   0.546183E+01    |   0.00000      |                   <- occ
|   177  |   0.551914E+01    |   0.00000      |                   <- occ
|   178  |   0.593333E+01    |   0.00000      |                   <- occ
|   179  |   0.602556E+01    |   0.00000      |                   <- occ
+--------+-------------------+----------------+                   <- occ
Spin 1, kpoint ( 0.125000 -0.125000 -0.375000 ) weight = 0.031250
+--------+-------------------+----------------+
|  Band  |   Eigenvalue      |    Occupancy   |                   <- occ
+--------+-------------------+----------------+                   <- occ
|   163  |   0.276190E+01    |   1.00000      |                   <- occ
|   164  |   0.286641E+01    |   1.00000      |                   <- occ
|   165  |   0.294055E+01    |   1.00000      |                   <- occ
|   166  |   0.312025E+01    |   1.00000      |                   <- occ
|   167  |   0.321882E+01    |   1.00000      |                   <- occ
|   168  |   0.329064E+01    |   1.00000      |                   <- occ
|   169  |   0.386137E+01    |  0.988897      |                   <- occ
|   170  |   0.389754E+01    |  0.978876      |                   <- occ
|   171  |   0.394354E+01    |  0.955975      |                   <- occ
|   172  |   0.410480E+01    |  0.714136      |                   <- occ
|   173  |   0.428480E+01    |  0.239700      |                   <- occ
|   174  |   0.477392E+01    |  0.155074E-04  |                   <- occ
|   175  |   0.503226E+01    |  0.103243E-08  |                   <- occ
|   176  |   0.522357E+01    |  0.102585E-12  |                   <- occ
|   177  |   0.537004E+01    |   0.00000      |                   <- occ
|   178  |   0.644815E+01    |   0.00000      |                   <- occ
|   179  |   0.662141E+01    |   0.00000      |                   <- occ
+--------+-------------------+----------------+                   <- occ
Spin 1, kpoint (-0.375000 -0.125000  0.125000 ) weight = 0.031250
+--------+-------------------+----------------+
|  Band  |   Eigenvalue      |    Occupancy   |                   <- occ
+--------+-------------------+----------------+                   <- occ
|   163  |   0.276192E+01    |   1.00000      |                   <- occ
|   164  |   0.286646E+01    |   1.00000      |                   <- occ
|   165  |   0.294056E+01    |   1.00000      |                   <- occ
|   166  |   0.312024E+01    |   1.00000      |                   <- occ
|   167  |   0.321878E+01    |   1.00000      |                   <- occ
|   168  |   0.329062E+01    |   1.00000      |                   <- occ
|   169  |   0.386120E+01    |  0.988933      |                   <- occ
|   170  |   0.389774E+01    |  0.978805      |                   <- occ
|   171  |   0.394345E+01    |  0.956035      |                   <- occ
|   172  |   0.410492E+01    |  0.713850      |                   <- occ
|   173  |   0.428482E+01    |  0.239664      |                   <- occ
|   174  |   0.477395E+01    |  0.154943E-04  |                   <- occ
|   175  |   0.503227E+01    |  0.103213E-08  |                   <- occ
|   176  |   0.522359E+01    |  0.102474E-12  |                   <- occ
|   177  |   0.537002E+01    |   0.00000      |                   <- occ
|   178  |   0.644817E+01    |   0.00000      |                   <- occ
|   179  |   0.662143E+01    |   0.00000      |                   <- occ
+--------+-------------------+----------------+                   <- occ
Spin 1, kpoint ( 0.125000 -0.125000 -0.125000 ) weight = 0.031250
+--------+-------------------+----------------+
|  Band  |   Eigenvalue      |    Occupancy   |                   <- occ
+--------+-------------------+----------------+                   <- occ
|   163  |   0.280670E+01    |   1.00000      |                   <- occ
|   164  |   0.317668E+01    |   1.00000      |                   <- occ
|   165  |   0.317672E+01    |   1.00000      |                   <- occ
|   166  |   0.323805E+01    |   1.00000      |                   <- occ
|   167  |   0.380538E+01    |  0.996349      |                   <- occ
|   168  |   0.383362E+01    |  0.993487      |                   <- occ
|   169  |   0.383377E+01    |  0.993468      |                   <- occ
|   170  |   0.387151E+01    |  0.986624      |                   <- occ
|   171  |   0.387190E+01    |  0.986529      |                   <- occ
|   172  |   0.396989E+01    |  0.935675      |                   <- occ
|   173  |   0.409313E+01    |  0.741511      |                   <- occ
|   174  |   0.413760E+01    |  0.630651      |                   <- occ
|   175  |   0.413789E+01    |  0.629873      |                   <- occ
|   176  |   0.496191E+01    |  0.195212E-07  |                   <- occ
|   177  |   0.496193E+01    |  0.194994E-07  |                   <- occ
|   178  |   0.522430E+01    |  0.986988E-13  |                   <- occ
|   179  |   0.589239E+01    |   0.00000      |                   <- occ
+--------+-------------------+----------------+                   <- occ
Spin 1, kpoint (-0.375000  0.125000 -0.375000 ) weight = 0.031250
+--------+-------------------+----------------+
|  Band  |   Eigenvalue      |    Occupancy   |                   <- occ
+--------+-------------------+----------------+                   <- occ
|   163  |   0.265766E+01    |   1.00000      |                   <- occ
|   164  |   0.281216E+01    |   1.00000      |                   <- occ
|   165  |   0.323803E+01    |   1.00000      |                   <- occ
|   166  |   0.326909E+01    |   1.00000      |                   <- occ
|   167  |   0.342372E+01    |   1.00000      |                   <- occ
|   168  |   0.346207E+01    |   1.00000      |                   <- occ
|   169  |   0.353091E+01    |  0.999998      |                   <- occ
|   170  |   0.428906E+01    |  0.230447      |                   <- occ
|   171  |   0.430374E+01    |  0.200122      |                   <- occ
|   172  |   0.493484E+01    |  0.567177E-07  |                   <- occ
|   173  |   0.493929E+01    |  0.477075E-07  |                   <- occ
|   174  |   0.530332E+01    |  0.127676E-14  |                   <- occ
|   175  |   0.531106E+01    |  0.832667E-15  |                   <- occ
|   176  |   0.546185E+01    |   0.00000      |                   <- occ
|   177  |   0.551912E+01    |   0.00000      |                   <- occ
|   178  |   0.593341E+01    |   0.00000      |                   <- occ
|   179  |   0.602554E+01    |   0.00000      |                   <- occ
+--------+-------------------+----------------+                   <- occ
Spin 1, kpoint ( 0.125000 -0.125000  0.125000 ) weight = 0.031250
+--------+-------------------+----------------+
|  Band  |   Eigenvalue      |    Occupancy   |                   <- occ
+--------+-------------------+----------------+                   <- occ
|   163  |   0.280670E+01    |   1.00000      |                   <- occ
|   164  |   0.317668E+01    |   1.00000      |                   <- occ
|   165  |   0.317672E+01    |   1.00000      |                   <- occ
|   166  |   0.323805E+01    |   1.00000      |                   <- occ
|   167  |   0.380538E+01    |  0.996349      |                   <- occ
|   168  |   0.383362E+01    |  0.993488      |                   <- occ
|   169  |   0.383377E+01    |  0.993467      |                   <- occ
|   170  |   0.387151E+01    |  0.986624      |                   <- occ
|   171  |   0.387191E+01    |  0.986527      |                   <- occ
|   172  |   0.396990E+01    |  0.935672      |                   <- occ
|   173  |   0.409313E+01    |  0.741528      |                   <- occ
|   174  |   0.413760E+01    |  0.630657      |                   <- occ
|   175  |   0.413789E+01    |  0.629879      |                   <- occ
|   176  |   0.496191E+01    |  0.195178E-07  |                   <- occ
|   177  |   0.496194E+01    |  0.194969E-07  |                   <- occ
|   178  |   0.522430E+01    |  0.986988E-13  |                   <- occ
|   179  |   0.589239E+01    |   0.00000      |                   <- occ
+--------+-------------------+----------------+                   <- occ
Spin 1, kpoint (-0.375000  0.125000  0.125000 ) weight = 0.031250
+--------+-------------------+----------------+
|  Band  |   Eigenvalue      |    Occupancy   |                   <- occ
+--------+-------------------+----------------+                   <- occ
|   163  |   0.276191E+01    |   1.00000      |                   <- occ
|   164  |   0.286646E+01    |   1.00000      |                   <- occ
|   165  |   0.294056E+01    |   1.00000      |                   <- occ
|   166  |   0.312023E+01    |   1.00000      |                   <- occ
|   167  |   0.321878E+01    |   1.00000      |                   <- occ
|   168  |   0.329063E+01    |   1.00000      |                   <- occ
|   169  |   0.386120E+01    |  0.988933      |                   <- occ
|   170  |   0.389774E+01    |  0.978805      |                   <- occ
|   171  |   0.394345E+01    |  0.956034      |                   <- occ
|   172  |   0.410492E+01    |  0.713844      |                   <- occ
|   173  |   0.428481E+01    |  0.239671      |                   <- occ
|   174  |   0.477395E+01    |  0.154947E-04  |                   <- occ
|   175  |   0.503227E+01    |  0.103200E-08  |                   <- occ
|   176  |   0.522358E+01    |  0.102529E-12  |                   <- occ
|   177  |   0.537003E+01    |   0.00000      |                   <- occ
|   178  |   0.644817E+01    |   0.00000      |                   <- occ
|   179  |   0.662142E+01    |   0.00000      |                   <- occ
+--------+-------------------+----------------+                   <- occ
Spin 1, kpoint ( 0.125000 -0.125000  0.375000 ) weight = 0.031250
+--------+-------------------+----------------+
|  Band  |   Eigenvalue      |    Occupancy   |                   <- occ
+--------+-------------------+----------------+                   <- occ
|   163  |   0.276191E+01    |   1.00000      |                   <- occ
|   164  |   0.286641E+01    |   1.00000      |                   <- occ
|   165  |   0.294055E+01    |   1.00000      |                   <- occ
|   166  |   0.312025E+01    |   1.00000      |                   <- occ
|   167  |   0.321882E+01    |   1.00000      |                   <- occ
|   168  |   0.329064E+01    |   1.00000      |                   <- occ
|   169  |   0.386137E+01    |  0.988897      |                   <- occ
|   170  |   0.389754E+01    |  0.978876      |                   <- occ
|   171  |   0.394354E+01    |  0.955975      |                   <- occ
|   172  |   0.410480E+01    |  0.714137      |                   <- occ
|   173  |   0.428480E+01    |  0.239698      |                   <- occ
|   174  |   0.477392E+01    |  0.155082E-04  |                   <- occ
|   175  |   0.503226E+01    |  0.103236E-08  |                   <- occ
|   176  |   0.522357E+01    |  0.102585E-12  |                   <- occ
|   177  |   0.537003E+01    |   0.00000      |                   <- occ
|   178  |   0.644815E+01    |   0.00000      |                   <- occ
|   179  |   0.662141E+01    |   0.00000      |                   <- occ
+--------+-------------------+----------------+                   <- occ
Spin 1, kpoint (-0.375000  0.375000 -0.375000 ) weight = 0.031250
+--------+-------------------+----------------+
|  Band  |   Eigenvalue      |    Occupancy   |                   <- occ
+--------+-------------------+----------------+                   <- occ
|   163  |   0.268256E+01    |   1.00000      |                   <- occ
|   164  |   0.379920E+01    |  0.996799      |                   <- occ
|   165  |   0.379924E+01    |  0.996796      |                   <- occ
|   166  |   0.389577E+01    |  0.979503      |                   <- occ
|   167  |   0.437760E+01    |  0.863719E-01  |                   <- occ
|   168  |   0.437778E+01    |  0.861725E-01  |                   <- occ
|   169  |   0.447836E+01    |  0.189507E-01  |                   <- occ
|   170  |   0.452366E+01    |  0.828124E-02  |                   <- occ
|   171  |   0.452383E+01    |  0.825445E-02  |                   <- occ
|   172  |   0.470350E+01    |  0.122272E-03  |                   <- occ
|   173  |   0.492649E+01    |  0.782660E-07  |                   <- occ
[...]
|   162  |   0.100973E+02    |   1.00000      |                   <- occ
|   163  |   0.102263E+02    |   1.00000      |                   <- occ
|   164  |   0.103697E+02    |   1.00000      |                   <- occ
|   165  |   0.105565E+02    |  0.999999      |                   <- occ
|   166  |   0.107301E+02    |  0.999805      |                   <- occ
|   167  |   0.108126E+02    |  0.998479      |                   <- occ
|   168  |   0.109218E+02    |  0.985792      |                   <- occ
|   169  |   0.110257E+02    |  0.927366      |                   <- occ
|   170  |   0.111336E+02    |  0.756111      |                   <- occ
|   171  |   0.112937E+02    |  0.330535      |                   <- occ
|   172  |   0.114335E+02    |  0.767696E-01  |                   <- occ
|   173  |   0.116441E+02    |  0.177362E-02  |                   <- occ
|   174  |   0.117005E+02    |  0.458804E-03  |                   <- occ
|   175  |   0.117753E+02    |  0.605050E-04  |                   <- occ
|   176  |   0.119313E+02    |  0.377479E-06  |                   <- occ
|   177  |   0.120326E+02    |  0.743468E-08  |                   <- occ
|   178  |   0.121368E+02    |  0.778489E-10  |                   <- occ
|   179  |   0.122314E+02    |  0.779987E-12  |                   <- occ
|   180  |   0.122859E+02    |  0.452416E-13  |                   <- occ
|   181  |   0.125433E+02    |   0.00000      |                   <- occ
|   182  |   0.126505E+02    |   0.00000      |                   <- occ
+--------+-------------------+----------------+                   <- occ
Spin 2, kpoint ( 0.375000 -0.125000  0.125000 ) weight = 0.031250
+--------+-------------------+----------------+
|  Band  |   Eigenvalue      |    Occupancy   |                   <- occ
+--------+-------------------+----------------+                   <- occ
|   160  |   0.990459E+01    |   1.00000      |                   <- occ
|   161  |   0.100415E+02    |   1.00000      |                   <- occ
|   162  |   0.101699E+02    |   1.00000      |                   <- occ
|   163  |   0.102148E+02    |   1.00000      |                   <- occ
|   164  |   0.103384E+02    |   1.00000      |                   <- occ
|   165  |   0.104480E+02    |   1.00000      |                   <- occ
|   166  |   0.105934E+02    |  0.999997      |                   <- occ
|   167  |   0.106867E+02    |  0.999942      |                   <- occ
|   168  |   0.109144E+02    |  0.987584      |                   <- occ
|   169  |   0.109691E+02    |  0.968334      |                   <- occ
|   170  |   0.110914E+02    |  0.839437      |                   <- occ
|   171  |   0.112762E+02    |  0.376475      |                   <- occ
|   172  |   0.113082E+02    |  0.294384      |                   <- occ
|   173  |   0.114160E+02    |  0.962762E-01  |                   <- occ
|   174  |   0.116089E+02    |  0.382860E-02  |                   <- occ
|   175  |   0.116950E+02    |  0.526527E-03  |                   <- occ
|   176  |   0.117985E+02    |  0.306606E-04  |                   <- occ
|   177  |   0.119584E+02    |  0.138439E-06  |                   <- occ
|   178  |   0.120403E+02    |  0.540936E-08  |                   <- occ
|   179  |   0.121464E+02    |  0.496077E-10  |                   <- occ
|   180  |   0.122506E+02    |  0.291545E-12  |                   <- occ
|   181  |   0.123832E+02    |  0.166533E-15  |                   <- occ
|   182  |   0.126231E+02    |   0.00000      |                   <- occ
+--------+-------------------+----------------+                   <- occ
Spin 2, kpoint (-0.125000 -0.375000  0.375000 ) weight = 0.031250
+--------+-------------------+----------------+
|  Band  |   Eigenvalue      |    Occupancy   |                   <- occ
+--------+-------------------+----------------+                   <- occ
|   160  |   0.996337E+01    |   1.00000      |                   <- occ
|   161  |   0.100170E+02    |   1.00000      |                   <- occ
|   162  |   0.101391E+02    |   1.00000      |                   <- occ
|   163  |   0.102433E+02    |   1.00000      |                   <- occ
|   164  |   0.102977E+02    |   1.00000      |                   <- occ
|   165  |   0.104246E+02    |   1.00000      |                   <- occ
|   166  |   0.105728E+02    |  0.999998      |                   <- occ
|   167  |   0.106961E+02    |  0.999924      |                   <- occ
|   168  |   0.107542E+02    |  0.999633      |                   <- occ
|   169  |   0.110255E+02    |  0.927600      |                   <- occ
|   170  |   0.111310E+02    |  0.761750      |                   <- occ
|   171  |   0.112060E+02    |  0.572235      |                   <- occ
|   172  |   0.114091E+02    |  0.104882      |                   <- occ
|   173  |   0.114527E+02    |  0.590439E-01  |                   <- occ
|   174  |   0.114674E+02    |  0.477911E-01  |                   <- occ
|   175  |   0.117386E+02    |  0.169142E-03  |                   <- occ
|   176  |   0.119182E+02    |  0.604453E-06  |                   <- occ
|   177  |   0.120699E+02    |  0.154434E-08  |                   <- occ
|   178  |   0.122198E+02    |  0.140671E-11  |                   <- occ
|   179  |   0.122711E+02    |  0.992539E-13  |                   <- occ
|   180  |   0.123626E+02    |  0.666134E-15  |                   <- occ
|   181  |   0.126180E+02    |   0.00000      |                   <- occ
|   182  |   0.126572E+02    |   0.00000      |                   <- occ
+--------+-------------------+----------------+                   <- occ
Spin 2, kpoint ( 0.375000  0.125000 -0.375000 ) weight = 0.031250
+--------+-------------------+----------------+
|  Band  |   Eigenvalue      |    Occupancy   |                   <- occ
+--------+-------------------+----------------+                   <- occ
|   160  |   0.990437E+01    |   1.00000      |                   <- occ
|   161  |   0.100370E+02    |   1.00000      |                   <- occ
|   162  |   0.101564E+02    |   1.00000      |                   <- occ
|   163  |   0.102860E+02    |   1.00000      |                   <- occ
|   164  |   0.103400E+02    |   1.00000      |                   <- occ
|   165  |   0.104536E+02    |   1.00000      |                   <- occ
|   166  |   0.105826E+02    |  0.999998      |                   <- occ
|   167  |   0.106699E+02    |  0.999964      |                   <- occ
|   168  |   0.107787E+02    |  0.999320      |                   <- occ
|   169  |   0.109775E+02    |  0.963874      |                   <- occ
|   170  |   0.111082E+02    |  0.808701      |                   <- occ
|   171  |   0.111864E+02    |  0.625563      |                   <- occ
|   172  |   0.112821E+02    |  0.360709      |                   <- occ
|   173  |   0.113393E+02    |  0.223293      |                   <- occ
|   174  |   0.116351E+02    |  0.216755E-02  |                   <- occ
|   175  |   0.117862E+02    |  0.441712E-04  |                   <- occ
|   176  |   0.118658E+02    |  0.367243E-05  |                   <- occ
|   177  |   0.120679E+02    |  0.168491E-08  |                   <- occ
|   178  |   0.121354E+02    |  0.827568E-10  |                   <- occ
|   179  |   0.122722E+02    |  0.935363E-13  |                   <- occ
|   180  |   0.123491E+02    |  0.138778E-14  |                   <- occ
|   181  |   0.124208E+02    |   0.00000      |                   <- occ
|   182  |   0.126405E+02    |   0.00000      |                   <- occ
+--------+-------------------+----------------+                   <- occ
Spin 2, kpoint (-0.125000 -0.125000 -0.375000 ) weight = 0.031250
+--------+-------------------+----------------+
|  Band  |   Eigenvalue      |    Occupancy   |                   <- occ
+--------+-------------------+----------------+                   <- occ
|   160  |   0.993912E+01    |   1.00000      |                   <- occ
|   161  |   0.100876E+02    |   1.00000      |                   <- occ
|   162  |   0.101878E+02    |   1.00000      |                   <- occ
|   163  |   0.103070E+02    |   1.00000      |                   <- occ
|   164  |   0.104294E+02    |   1.00000      |                   <- occ
|   165  |   0.106235E+02    |  0.999991      |                   <- occ
|   166  |   0.106462E+02    |  0.999983      |                   <- occ
|   167  |   0.108326E+02    |  0.997614      |                   <- occ
|   168  |   0.109502E+02    |  0.976752      |                   <- occ
|   169  |   0.110114E+02    |  0.940361      |                   <- occ
|   170  |   0.110820E+02    |  0.855095      |                   <- occ
|   171  |   0.112815E+02    |  0.362267      |                   <- occ
|   172  |   0.113379E+02    |  0.226340      |                   <- occ
|   173  |   0.114397E+02    |  0.707106E-01  |                   <- occ
|   174  |   0.116076E+02    |  0.393128E-02  |                   <- occ
|   175  |   0.116720E+02    |  0.923764E-03  |                   <- occ
|   176  |   0.117676E+02    |  0.755698E-04  |                   <- occ
|   177  |   0.119665E+02    |  0.101765E-06  |                   <- occ
|   178  |   0.120968E+02    |  0.477080E-09  |                   <- occ
|   179  |   0.122206E+02    |  0.134931E-11  |                   <- occ
|   180  |   0.123799E+02    |  0.222045E-15  |                   <- occ
|   181  |   0.125277E+02    |   0.00000      |                   <- occ
|   182  |   0.126055E+02    |   0.00000      |                   <- occ
+--------+-------------------+----------------+                   <- occ
Spin 2, kpoint ( 0.375000  0.125000  0.125000 ) weight = 0.031250
+--------+-------------------+----------------+
|  Band  |   Eigenvalue      |    Occupancy   |                   <- occ
+--------+-------------------+----------------+                   <- occ
|   160  |   0.991106E+01    |   1.00000      |                   <- occ
|   161  |   0.100719E+02    |   1.00000      |                   <- occ
|   162  |   0.102025E+02    |   1.00000      |                   <- occ
|   163  |   0.103156E+02    |   1.00000      |                   <- occ
|   164  |   0.104282E+02    |   1.00000      |                   <- occ
|   165  |   0.104678E+02    |   1.00000      |                   <- occ
|   166  |   0.106305E+02    |  0.999989      |                   <- occ
|   167  |   0.107013E+02    |  0.999912      |                   <- occ
|   168  |   0.108885E+02    |  0.992381      |                   <- occ
|   169  |   0.109285E+02    |  0.983971      |                   <- occ
|   170  |   0.110406E+02    |  0.911732      |                   <- occ
|   171  |   0.111863E+02    |  0.625877      |                   <- occ
|   172  |   0.112434E+02    |  0.467134      |                   <- occ
|   173  |   0.113967E+02    |  0.121622      |                   <- occ
|   174  |   0.115319E+02    |  0.169043E-01  |                   <- occ
|   175  |   0.115968E+02    |  0.491374E-02  |                   <- occ
|   176  |   0.117083E+02    |  0.375977E-03  |                   <- occ
|   177  |   0.118496E+02    |  0.624339E-05  |                   <- occ
|   178  |   0.120419E+02    |  0.506006E-08  |                   <- occ
|   179  |   0.121591E+02    |  0.273070E-10  |                   <- occ
|   180  |   0.123067E+02    |  0.146549E-13  |                   <- occ
|   181  |   0.124739E+02    |   0.00000      |                   <- occ
|   182  |   0.125891E+02    |   0.00000      |                   <- occ
+--------+-------------------+----------------+                   <- occ
Spin 2, kpoint (-0.125000  0.375000  0.375000 ) weight = 0.031250
+--------+-------------------+----------------+
|  Band  |   Eigenvalue      |    Occupancy   |                   <- occ
+--------+-------------------+----------------+                   <- occ
|   160  |   0.991962E+01    |   1.00000      |                   <- occ
|   161  |   0.997772E+01    |   1.00000      |                   <- occ
|   162  |   0.101172E+02    |   1.00000      |                   <- occ
|   163  |   0.102838E+02    |   1.00000      |                   <- occ
|   164  |   0.103880E+02    |   1.00000      |                   <- occ
|   165  |   0.105277E+02    |   1.00000      |                   <- occ
|   166  |   0.106351E+02    |  0.999988      |                   <- occ
|   167  |   0.106746E+02    |  0.999959      |                   <- occ
|   168  |   0.109221E+02    |  0.985715      |                   <- occ
|   169  |   0.110821E+02    |  0.854991      |                   <- occ
|   170  |   0.112153E+02    |  0.546131      |                   <- occ
|   171  |   0.112929E+02    |  0.332517      |                   <- occ
|   172  |   0.114202E+02    |  0.912690E-01  |                   <- occ
|   173  |   0.114406E+02    |  0.698129E-01  |                   <- occ
|   174  |   0.115578E+02    |  0.105526E-01  |                   <- occ
|   175  |   0.116505E+02    |  0.153034E-02  |                   <- occ
|   176  |   0.118422E+02    |  0.791514E-05  |                   <- occ
|   177  |   0.119779E+02    |  0.659577E-07  |                   <- occ
|   178  |   0.121374E+02    |  0.755861E-10  |                   <- occ
|   179  |   0.122533E+02    |  0.253353E-12  |                   <- occ
|   180  |   0.123919E+02    |   0.00000      |                   <- occ
|   181  |   0.125758E+02    |   0.00000      |                   <- occ
|   182  |   0.126594E+02    |   0.00000      |                   <- occ
+--------+-------------------+----------------+                   <- occ
Spin 2, kpoint ( 0.375000  0.125000  0.375000 ) weight = 0.031250
+--------+-------------------+----------------+
|  Band  |   Eigenvalue      |    Occupancy   |                   <- occ
+--------+-------------------+----------------+                   <- occ
|   160  |   0.993200E+01    |   1.00000      |                   <- occ
|   161  |   0.101096E+02    |   1.00000      |                   <- occ
|   162  |   0.101996E+02    |   1.00000      |                   <- occ
|   163  |   0.102788E+02    |   1.00000      |                   <- occ
|   164  |   0.104246E+02    |   1.00000      |                   <- occ
|   165  |   0.105251E+02    |   1.00000      |                   <- occ
|   166  |   0.106634E+02    |  0.999971      |                   <- occ
|   167  |   0.107336E+02    |  0.999786      |                   <- occ
|   168  |   0.108552E+02    |  0.996122      |                   <- occ
|   169  |   0.110346E+02    |  0.918278      |                   <- occ
|   170  |   0.110558E+02    |  0.893273      |                   <- occ
|   171  |   0.111014E+02    |  0.821654      |                   <- occ
|   172  |   0.113654E+02    |  0.172325      |                   <- occ
|   173  |   0.114759E+02    |  0.421134E-01  |                   <- occ
|   174  |   0.116043E+02    |  0.421462E-02  |                   <- occ
|   175  |   0.117326E+02    |  0.198853E-03  |                   <- occ
|   176  |   0.117771E+02    |  0.575413E-04  |                   <- occ
|   177  |   0.118837E+02    |  0.201096E-05  |                   <- occ
|   178  |   0.119756E+02    |  0.720224E-07  |                   <- occ
|   179  |   0.122198E+02    |  0.140449E-11  |                   <- occ
|   180  |   0.122876E+02    |  0.411338E-13  |                   <- occ
|   181  |   0.124164E+02    |   0.00000      |                   <- occ
|   182  |   0.126072E+02    |   0.00000      |                   <- occ
+--------+-------------------+----------------+                   <- occ
Spin 2, kpoint ( 0.125000 -0.375000 -0.125000 ) weight = 0.031250
+--------+-------------------+----------------+
|  Band  |   Eigenvalue      |    Occupancy   |                   <- occ
+--------+-------------------+----------------+                   <- occ
|   160  |   0.990304E+01    |   1.00000      |                   <- occ
|   161  |   0.100527E+02    |   1.00000      |                   <- occ
|   162  |   0.101958E+02    |   1.00000      |                   <- occ
|   163  |   0.102678E+02    |   1.00000      |                   <- occ
|   164  |   0.103950E+02    |   1.00000      |                   <- occ
|   165  |   0.104944E+02    |   1.00000      |                   <- occ
|   166  |   0.107562E+02    |  0.999614      |                   <- occ
|   167  |   0.108023E+02    |  0.998803      |                   <- occ
|   168  |   0.109553E+02    |  0.974659      |                   <- occ
|   169  |   0.111500E+02    |  0.718353      |                   <- occ
|   170  |   0.112336E+02    |  0.494582      |                   <- occ
|   171  |   0.112754E+02    |  0.378603      |                   <- occ
|   172  |   0.113243E+02    |  0.256319      |                   <- occ
|   173  |   0.115186E+02    |  0.212390E-01  |                   <- occ
|   174  |   0.116779E+02    |  0.803172E-03  |                   <- occ
|   175  |   0.117938E+02    |  0.352994E-04  |                   <- occ
|   176  |   0.118693E+02    |  0.326695E-05  |                   <- occ
|   177  |   0.120687E+02    |  0.162218E-08  |                   <- occ
|   178  |   0.121692E+02    |  0.168869E-10  |                   <- occ
|   179  |   0.123622E+02    |  0.666134E-15  |                   <- occ
|   180  |   0.124044E+02    |   0.00000      |                   <- occ
|   181  |   0.125230E+02    |   0.00000      |                   <- occ
|   182  |   0.125906E+02    |   0.00000      |                   <- occ
+--------+-------------------+----------------+                   <- occ
Spin 2, kpoint ( 0.375000  0.375000 -0.375000 ) weight = 0.031250
+--------+-------------------+----------------+
|  Band  |   Eigenvalue      |    Occupancy   |                   <- occ
+--------+-------------------+----------------+                   <- occ
|   160  |   0.991282E+01    |   1.00000      |                   <- occ
|   161  |   0.100104E+02    |   1.00000      |                   <- occ
|   162  |   0.101306E+02    |   1.00000      |                   <- occ
|   163  |   0.102425E+02    |   1.00000      |                   <- occ
|   164  |   0.103197E+02    |   1.00000      |                   <- occ
|   165  |   0.105376E+02    |   1.00000      |                   <- occ
|   166  |   0.106023E+02    |  0.999996      |                   <- occ
|   167  |   0.106641E+02    |  0.999970      |                   <- occ
|   168  |   0.107677E+02    |  0.999482      |                   <- occ
|   169  |   0.108552E+02    |  0.996116      |                   <- occ
|   170  |   0.110502E+02    |  0.900391      |                   <- occ
|   171  |   0.111985E+02    |  0.592792      |                   <- occ
|   172  |   0.113329E+02    |  0.237079      |                   <- occ
|   173  |   0.114272E+02    |  0.834127E-01  |                   <- occ
|   174  |   0.115651E+02    |  0.919834E-02  |                   <- occ
|   175  |   0.117874E+02    |  0.426356E-04  |                   <- occ
|   176  |   0.118616E+02    |  0.420795E-05  |                   <- occ
|   177  |   0.119539E+02    |  0.163848E-06  |                   <- occ
|   178  |   0.120733E+02    |  0.133406E-08  |                   <- occ
|   179  |   0.123831E+02    |  0.222045E-15  |                   <- occ
|   180  |   0.124424E+02    |   0.00000      |                   <- occ
|   181  |   0.125598E+02    |   0.00000      |                   <- occ
|   182  |   0.126549E+02    |   0.00000      |                   <- occ
+--------+-------------------+----------------+                   <- occ
Have a nice day.
  ****************************************************************************
  Warning: electronic minimisation did not converge when finding ground state.
  ****************************************************************************
