 +-------------------------------------------------+
 |                                                 |
 |      CCC   AA    SSS  TTTTT  EEEEE  PPPP        |
 |     C     A  A  S       T    E      P   P       |
 |     C     AAAA   SS     T    EEE    PPPP        |
 |     C     A  A     S    T    E      P           |
 |      CCC  A  A  SSS     T    EEEEE  P           |
 |                                                 |
 +-------------------------------------------------+
 |                                                 |
 | Welcome to Academic Release CASTEP version 22.1 |          
 | Ab Initio Total Energy Program                  |
 |                                                 |
 | Authors:                                        |
 | M. Segall, M. Probert, C. Pickard, P. Hasnip,   |
 | S. Clark, K. Refson, J. R. Yates, M. Payne      |
 |                                                 |
 | Contributors:                                   |
 | P. Lindan, P. Haynes, J. White, V. Milman,      |
 | N. Govind, M. Gibson, P. Tulip, V. Cocula,      |
 | B. Montanari, D. Quigley, M. Glover,            |
 | L. Bernasconi, A. Perlov, M. Plummer,           |
 | E. McNellis, J. Meyer, J. Gale, D. Jochym       |
 | J. Aarons, B. Walker, R. Gillen, D. Jones       |
 | T. Green, I. J. Bush, C. J. Armstrong,          |
 | E. J. Higgins, E. L. Brown, M. S. McFly,        |
 | J. Wilkins, B-C. Shih, P. J. P. Byrne,          |
 | R. J. Maurer, J. C. Womack, J. Dziedzic,        |
 | A. Bartok-Partay, L. LeBlanc, T. K. Stenczel,   |
 | J. Kermode, S. Sturniolo                        |
 |                                                 |
 | Copyright (c) 2000 - 2021                       |
 |                                                 |
 |     Distributed under license from Cambridge    |
 |     Enterprise for academic use only.           |
 |                                                 |
 | Please cite                                     |
 |                                                 |
 |     "First principles methods using CASTEP"     |
 |                                                 |
 |         Zeitschrift fuer Kristallographie       |
 |           220(5-6) pp. 567-570 (2005)           |
 |                                                 |
 | S. J. Clark, M. D. Segall, C. J. Pickard,       |
 | P. J. Hasnip, M. J. Probert, K. Refson,         |
 | M. C. Payne                                     |
 |                                                 |
 |       in all publications arising from          |
 |              your use of CASTEP                 |
 |                                                 |
 +-------------------------------------------------+
 |                                                 |
 |              http://www.castep.org              |
 |                                                 |
 +-------------------------------------------------+
 
 
 
 Compiled for linux_x86_64_ifort on Fri, 08 Oct 2021 16:40:45 +0100
 from code version 
 46216fb+  new-neb-implementation  Fri Oct 8 16:33:32 2021 +0100
 Compiler: Intel Fortran 18.0.3.222; Optimisation: fast
 MATHLIBS: Intel MKL(2018.0.3) (LAPACK version 3.7.0)
 FFT Lib : default
 Fundamental constants values: CODATA 2014
 
 Run started: Fri, 08 Oct 2021 19:59:51 +0100
 
 Atomic calculation performed for Cu: 1s2 2s2 2p6 3s2 3p6 3d10 4s1
 
 Converged in 143 iterations to an ae energy of -45030.712 eV
 
   ============================================================                
   | Pseudopotential Report - Date of generation  8-10-2021   |                
   ------------------------------------------------------------                
   | Element: Cu Ionic charge: 11.00 Level of theory: PBE     |                
   | Atomic Solver: Koelling-Harmon                           |                
   |                                                          |                
   |               Reference Electronic Structure             |                
   |         Orbital         Occupation         Energy        |                
   |            3d             10.000           -0.185        |                
   |            4s              1.000           -0.169        |                
   |                                                          |                
   |                 Pseudopotential Definition               |                
   |        Beta     l      e      Rc     scheme   norm       |                
   |          1      0   -0.169   1.996     qc      0         |                
   |          2      0    0.250   1.996     qc      0         |                
   |          3      1    0.000   1.996     qc      0         |                
   |          4      1    0.250   1.996     qc      0         |                
   |          5      2   -0.185   1.996     qc      0         |                
   |          6      2    0.250   1.996     qc      0         |                
   |         loc     3    0.000   2.206     pn      0         |                
   |                                                          |                
   | Augmentation charge Rinner = 0.999                       |                
   | Partial core correction Rc = 0.999                       |                
   ------------------------------------------------------------                
   | "3|2.2|2.0|1.0|10|12|13|40:41:32(qc=6)"                  |                
   ------------------------------------------------------------                
   |      Author: Chris J. Pickard, Cambridge University      |                
   ============================================================                
 
 Pseudo atomic calculation performed for Cu 3d10 4s1
 
 Converged in 49 iterations to a total energy of -1676.8615 eV
 Calculation parallelised over 64 processes.
 Data is distributed by G-vector(2-way) and k-point(32-way)

 ************************************ Title ************************************
 

 ***************************** General Parameters ******************************
  
 output verbosity                               : normal  (1)
 write checkpoint data to                       : CuVac.check
 type of calculation                            : transition state search
 stress calculation                             : off
 density difference calculation                 : off
 electron localisation func (ELF) calculation   : off
 Hirshfeld analysis                             : off
 polarisation (Berry phase) analysis            : off
 molecular orbital projected DOS                : off
 deltaSCF calculation                           : off
 unlimited duration calculation
 timing information                             : on
 memory usage estimate                          : on
 write extra output files                       : on
 write final potential to formatted file        : off
 write final density to formatted file          : off
 write BibTeX reference list                    : on
 write OTFG pseudopotential files               : on
 write electrostatic potential file             : on
 write bands file                               : on
 checkpoint writing                             : both castep_bin and check files
  
 output         length unit                     : A
 output           mass unit                     : amu
 output           time unit                     : ps
 output         charge unit                     : e
 output           spin unit                     : hbar/2
 output         energy unit                     : eV
 output          force unit                     : eV/A
 output       velocity unit                     : A/ps
 output       pressure unit                     : GPa
 output     inv_length unit                     : 1/A
 output      frequency unit                     : cm-1
 output force constant unit                     : eV/A**2
 output         volume unit                     : A**3
 output   IR intensity unit                     : (D/A)**2/amu
 output         dipole unit                     : D
 output         efield unit                     : eV/A/e
 output        entropy unit                     : J/mol/K
 output    efield chi2 unit                     : pm/V
  
 wavefunctions paging                           : none
 random number generator seed                   : randomised (195951329)
 data distribution                              : optimal for this architecture
 optimization strategy                          : balance speed and memory

 *********************** Exchange-Correlation Parameters ***********************
  
 using functional                               : Perdew Burke Ernzerhof
 relativistic treatment                         : Koelling-Harmon
 DFT+D: Semi-empirical dispersion correction    : off

 ************************* Pseudopotential Parameters **************************
  
 pseudopotential representation                 : reciprocal space
 <beta|phi> representation                      : reciprocal space
 spin-orbit coupling                            : off

 **************************** Basis Set Parameters *****************************
  
 plane wave basis set cut-off                   :   500.0000   eV
 size of standard grid                          :     1.7500
 size of   fine   gmax                          :    20.0476   1/A
 finite basis set correction                    : none

 **************************** Electronic Parameters ****************************
  
 number of  electrons                           :  341.0    
 net charge of system                           :  0.000    
 net spin   of system                           :  1.000    
 number of  up  spins                           :  171.0    
 number of down spins                           :  170.0    
 treating system as spin-polarized
 number of bands                                :        205

 ********************* Electronic Minimization Parameters **********************
  
 Method: Treating system as metallic with density mixing treatment of electrons,
         and number of  SD  steps               :          1
         and number of  CG  steps               :          4
  
 total energy / atom convergence tol.           : 0.1000E-04   eV
 eigen-energy convergence tolerance             : 0.1000E-05   eV
 max force / atom convergence tol.              : ignored
 convergence tolerance window                   :          3   cycles
 max. number of SCF cycles                      :        100
 number of fixed-spin iterations                :         10
 smearing scheme                                : Gaussian
 smearing width                                 : 0.2000       eV
 Fermi energy convergence tolerance             : 0.2721E-13   eV
 periodic dipole correction                     : NONE

 ************************** Density Mixing Parameters **************************
  
 density-mixing scheme                          : Broyden
 max. length of mixing history                  :         20
 charge density mixing amplitude                : 0.8000    
   spin density mixing amplitude                :  2.000    
 cut-off energy for mixing                      :  500.0       eV

 *********************** Population Analysis Parameters ************************
  
 Population analysis with cutoff                :  3.000       A
 Population analysis output                     : summary and pdos components

 ********************* Transition State Search Parameters **********************
  
 search method                                  : NEB   
 max. ionic |force| tolerance                   : 0.5000E-01   eV/A
 max. ionic |displacement| tolerance            : 0.1000E-02   A
 max. ionic |energy| tolerance                  : 0.2000E-04   eV
 NEB method                                     : ODE12R    
 max. number of NEB iterations                  :        100
 max. number of path points                     :          5
 inter-bead spring constant                     : 0.1000       eV/A**2
 tangent mode                                   : SPLINE    
 central bead is                                : climbing up

 *******************************************************************************
  
 
                           -------------------------------
                                      Unit Cell
                           -------------------------------
        Real Lattice(A)                      Reciprocal Lattice(1/A)
     7.2533590     0.0000000     0.0000000        0.866244909   0.000000000   0.000000000
     0.0000000     7.2533590     0.0000000        0.000000000   0.866244909   0.000000000
     0.0000000     0.0000000     7.2533590        0.000000000   0.000000000   0.866244909
 
                       Lattice parameters(A)       Cell Angles
                    a =      7.253359          alpha =   90.000000
                    b =      7.253359          beta  =   90.000000
                    c =      7.253359          gamma =   90.000000
 
                       Current cell volume =           381.608043       A**3
                                   density =             5.162171   AMU/A**3
                                           =             8.571987     g/cm^3
 
                           -------------------------------
                                     Cell Contents
                           -------------------------------
                         Total number of ions in cell =   31
                      Total number of species in cell =    1
                        Max number of any one species =   31
 
            xxxxxxxxxxxxxxxxxxxxxxxxxxxxxxxxxxxxxxxxxxxxxxxxxxxxxxxxxxxx
            x                          Reactant                        x
            xxxxxxxxxxxxxxxxxxxxxxxxxxxxxxxxxxxxxxxxxxxxxxxxxxxxxxxxxxxx
            x  Element    Atom        Fractional coordinates of atoms  x
            x            Number           u          v          w      x
            x----------------------------------------------------------x
            x  Cu           1        -0.000002   0.000001   0.000000   x 
            x  Cu           2         0.999999   0.250819   0.250805   x 
            x  Cu           3         0.250818   0.999997   0.250809   x 
            x  Cu           4         0.250814   0.250816  -0.000001   x 
            x  Cu           5         0.000002  -0.000003   0.500000   x 
            x  Cu           6         0.999999   0.250819   0.749196   x 
            x  Cu           7         0.250818  -0.000002   0.749191   x 
            x  Cu           8         0.252920   0.252920   0.500000   x 
            x  Cu           9         0.999999   0.499999  -0.000000   x 
            x  Cu          10         1.000004   0.749181   0.250809   x 
            x  Cu          11         0.252916   0.500003   0.252914   x 
            x  Cu          12         0.250813   0.749184   0.000001   x 
            x  Cu          13         1.000003   0.500004   0.500000   x 
            x  Cu          14         1.000003   0.749181   0.749191   x 
            x  Cu          15         0.252916   0.500002   0.747085   x 
            x  Cu          16         0.252919   0.747080   0.500000   x 
            x  Cu          17         0.500002   0.000002   1.000001   x 
            x  Cu          18         0.500001   0.252916   0.252911   x 
            x  Cu          19         0.749182   0.000001   0.250804   x 
            x  Cu          20         0.749186   0.250815  -0.000000   x 
            x  Cu          21         0.499997  -0.000002   0.500000   x 
            x  Cu          22         0.500002   0.252917   0.747088   x 
            x  Cu          23         0.749182   0.000002   0.749195   x 
            x  Cu          24         0.747080   0.252919   0.500000   x 
            x  Cu          25         0.500001   0.499998   0.000000   x 
            x  Cu          26         0.499997   0.747083   0.252916   x 
            x  Cu          27         0.747084   0.499999   0.252910   x 
            x  Cu          28         0.749187   0.749186   0.000001   x 
            x  Cu          29         0.499997   0.747083   0.747084   x 
            x  Cu          30         0.747084   0.499998   0.747090   x 
            x  Cu          31         0.747081   0.747081   0.500000   x 
            xxxxxxxxxxxxxxxxxxxxxxxxxxxxxxxxxxxxxxxxxxxxxxxxxxxxxxxxxxxx
 
            xxxxxxxxxxxxxxxxxxxxxxxxxxxxxxxxxxxxxxxxxxxxxxxxxxxxxxxxxxxx
            x                          Product                         x
            xxxxxxxxxxxxxxxxxxxxxxxxxxxxxxxxxxxxxxxxxxxxxxxxxxxxxxxxxxxx
            x  Element    Atom        Fractional coordinates of atoms  x
            x            Number           u          v          w      x
            x----------------------------------------------------------x
            x  Cu           1         0.000827   0.000827   0.000000   x 
            x  Cu           2         0.002895   0.249953   0.252848   x 
            x  Cu           3         0.249953   0.002895   0.252848   x 
            x  Cu           4         0.249953   0.249953   0.999951   x 
            x  Cu           5         0.002895   0.002895   0.500044   x 
            x  Cu           6         0.002895   0.249953   0.747102   x 
            x  Cu           7         0.249953   0.002895   0.747102   x 
            x  Cu           8         0.497149   0.497149   0.500044   x 
            x  Cu           9         0.000827   0.499217   0.000000   x 
            x  Cu          10         0.000827   0.749997   0.250780   x 
            x  Cu          11         0.249953   0.497149   0.252848   x 
            x  Cu          12         0.249953   0.749997   0.000000   x 
            x  Cu          13         0.002895   0.497149   0.500044   x 
            x  Cu          14         0.000827   0.749997   0.749170   x 
            x  Cu          15         0.249953   0.497149   0.747102   x 
            x  Cu          16         0.249953   0.749997   0.500044   x 
            x  Cu          17         0.499217   0.000827   0.000000   x 
            x  Cu          18         0.497149   0.249953   0.252848   x 
            x  Cu          19         0.749997   0.000827   0.250780   x 
            x  Cu          20         0.749997   0.249953   0.999951   x 
            x  Cu          21         0.497149   0.002895   0.500044   x 
            x  Cu          22         0.497149   0.249953   0.747102   x 
            x  Cu          23         0.749997   0.000827   0.749170   x 
            x  Cu          24         0.749997   0.249953   0.500044   x 
            x  Cu          25         0.499217   0.499217   0.000000   x 
            x  Cu          26         0.499217   0.749997   0.250780   x 
            x  Cu          27         0.749997   0.499217   0.250780   x 
            x  Cu          28         0.749997   0.749997   0.000000   x 
            x  Cu          29         0.499217   0.749997   0.749170   x 
            x  Cu          30         0.749997   0.499217   0.749170   x 
            x  Cu          31         0.749997   0.749997   0.500044   x 
            xxxxxxxxxxxxxxxxxxxxxxxxxxxxxxxxxxxxxxxxxxxxxxxxxxxxxxxxxxxx
 
 
                         No user defined ionic velocities
 
                           -------------------------------
                                   Details of Species
                           -------------------------------
 
                               Mass of species in AMU
                                    Cu   63.5460000
 
                          Electric Quadrupole Moment (Barn)
                                    Cu   -0.2200000 Isotope 63
 
                          Files used for pseudopotentials:
                                    Cu 3|2.2|2.0|1.0|10|12|13|40:41:32(qc=6)
 
                           -------------------------------
                              k-Points For BZ Sampling
                           -------------------------------
                       MP grid size for SCF calculation is  4  4  4
                            with an offset of   0.000  0.000  0.000
                       Number of kpoints used =            32
 
                           -------------------------------
                               Symmetry and Constraints
                           -------------------------------
 
                      Maximum deviation from symmetry =  0.00000         ANG
 
                      Number of symmetry operations   =           1
         There are no ionic constraints specified or generated for this cell
                      Point group of crystal =     1: C1, 1, 1
                      Space group of crystal =   221: Pm-3m, -P 4 2 3
 
             Set iprint > 1 for details on symmetry rotations/translations
 
                         Centre of mass is NOT constrained
 
                         Number of cell constraints= 0
                         Cell constraints are:  1 2 3 4 5 6
 
                         External pressure/stress (GPa)
                          0.00000   0.00000   0.00000
                                    0.00000   0.00000
                                              0.00000
  
+---------------- MEMORY AND SCRATCH DISK ESTIMATES PER PROCESS --------------+
|                                                     Memory          Disk    |
| Baseline code, static data and system overhead      518.0 MB         0.0 MB |
| BLAS internal memory storage                          0.0 MB         0.0 MB |
| Model and support data                              175.5 MB       147.5 MB |
| Electronic energy minimisation requirements         134.9 MB         0.0 MB |
| Force calculation requirements                       12.6 MB         0.0 MB |
|                                               ----------------------------- |
| Approx. total storage required per process          828.4 MB       147.5 MB |
|                                                                             |
| Requirements will fluctuate during execution and may exceed these estimates |
+-----------------------------------------------------------------------------+
Calculating approximate eigenstates for fixed initial Hamiltonian
Cut-off for approx. calculation is   89.988 eV
Improving approx. states at cut-off of  272.114 eV
Resetting cut-off to  500.000 eV
Calculating total energy with cut-off of  500.000 eV.
------------------------------------------------------------------------ <-- SCF
SCF loop      Energy           Fermi           Energy gain       Timer   <-- SCF
                               energy          per atom          (sec)   <-- SCF
------------------------------------------------------------------------ <-- SCF
Initial  -5.30529447E+004  0.00000000E+000                        36.61  <-- SCF
      1  -5.21055659E+004  4.22265948E+000  -3.05606060E+001      54.02  <-- SCF
      2  -5.21074225E+004  4.28393790E+000   5.98896672E-002      72.51  <-- SCF
      3  -5.21080357E+004  4.32080973E+000   1.97819214E-002      87.21  <-- SCF
      4  -5.21083014E+004  4.11870036E+000   8.56976571E-003     101.71  <-- SCF
      5  -5.21078136E+004  4.12354877E+000  -1.57365127E-002     116.13  <-- SCF
      6  -5.21082481E+004  4.26327631E+000   1.40162344E-002     130.53  <-- SCF
      7  -5.21077941E+004  4.21676874E+000  -1.46429133E-002     144.99  <-- SCF
      8  -5.21078700E+004  4.18216120E+000   2.44813556E-003     159.54  <-- SCF
      9  -5.21077630E+004  4.19161893E+000  -3.45387258E-003     174.09  <-- SCF
     10  -5.21077647E+004  4.18381934E+000   5.57847273E-005     188.58  <-- SCF
     11  -5.21077902E+004  4.18814169E+000   8.23426796E-004     203.07  <-- SCF
     12  -5.21077705E+004  4.18507397E+000  -6.36944983E-004     217.38  <-- SCF
     13  -5.21077705E+004  4.18394833E+000  -4.44077906E-010     232.08  <-- SCF
     14  -5.21077701E+004  4.18595431E+000  -1.12302934E-005     246.44  <-- SCF
     15  -5.21077718E+004  4.18441200E+000   5.42996472E-005     260.79  <-- SCF
     16  -5.21077692E+004  4.18424583E+000  -8.52009444E-005     274.94  <-- SCF
     17  -5.21077693E+004  4.18629246E+000   3.31483221E-006     284.87  <-- SCF
     18  -5.21077692E+004  4.18461294E+000  -1.16087593E-006     294.81  <-- SCF
------------------------------------------------------------------------ <-- SCF
 
Integrated Spin Density     =   -0.138328E-02 hbar/2                        
Integrated |Spin Density|   =    0.378955E-02 hbar/2                        
 
Final energy, E             =  -52107.55641697     eV
Final free energy (E-TS)    =  -52107.76923385     eV
(energies not corrected for finite basis set)
 
NB est. 0K energy (E-0.5TS)      =  -52107.66282541     eV
 

Writing analysis data to CuVac.castep_bin

Writing model to CuVac.check
++++++++++++++++++++++++++++++++++++++++++++++++++++++++++++++++++++++++++++++++
+++++++++++++++++++++++ Starting Transition State Search +++++++++++++++++++++++
++++++++++++++++++++++++++++++++++++++++++++++++++++++++++++++++++++++++++++++++
 
 =====================================================================
 |                                                                   |
 |                  Nudged Elastic Band optimization                 |
 |                                                                   |
 =====================================================================

     NEB elastic constant:      0.001029 Hartree/Bohr^2
Optimisation algorithm:     ode12r                                                                                                                                                                                                                                                          
Tangent mode:     Spline interpolation                                                                                                                                                                                                                                            
 Number of task farms to use:           1
  --- Initialising NEB constraints ---
     Fixed            0  degrees of freedom
     Using            0  Lagrange multipliers
 
Using climbing image:        3
 Reactant structure energy:   -52107.7692295506       eV
 Product structure energy:   -52107.7692514767       eV
 
 *********************** 
     Iteration:     1

 *********************** 
 *********************** 
     Iteration:     2
         Max Force Component:             0.304060 eV/Ang (0)
         Max Displacement Component:      0.108661 Ang (0)

 *********************** 
  Saving model to checkpoint file...

Writing analysis data to CuVac.castep_bin

Writing model to CuVac.check
 *********************** 
     Iteration:     3
         Max Force Component:             0.255950 eV/Ang (0)
         Max Displacement Component:      0.013765 Ang (0)

 *********************** 
 *********************** 
     Iteration:     4
         Max Force Component:             0.146879 eV/Ang (0)
         Max Displacement Component:      0.025313 Ang (0)

 *********************** 
  Saving model to checkpoint file...

Writing analysis data to CuVac.castep_bin

Writing model to CuVac.check
 *********************** 
     Iteration:     5
         Max Force Component:             0.084417 eV/Ang (0)
         Max Displacement Component:      0.018784 Ang (0)

 *********************** 
 *********************** 
     Iteration:     6
         Max Force Component:             0.061863 eV/Ang (0)
         Max Displacement Component:      0.015589 Ang (0)

 *********************** 
  Saving model to checkpoint file...

Writing analysis data to CuVac.castep_bin

Writing model to CuVac.check
 *********************** 
     Iteration:     7
         Max Force Component:             0.058995 eV/Ang (0)
         Max Displacement Component:      0.012398 Ang (0)

 *********************** 
 *********************** 
     Iteration:     8
         Max Force Component:             0.053326 eV/Ang (0)
         Max Displacement Component:      0.004627 Ang (0)

 *********************** 
  Saving model to checkpoint file...

Writing analysis data to CuVac.castep_bin

Writing model to CuVac.check
 *********************** 
     Iteration:     9
         Max Force Component:             0.053529 eV/Ang (0)
         Max Displacement Component:      0.003355 Ang (0)

 *********************** 
 *********************** 
     Iteration:    10
         Max Force Component:             0.058091 eV/Ang (0)
         Max Displacement Component:      0.013470 Ang (0)

 *********************** 
  Saving model to checkpoint file...

Writing analysis data to CuVac.castep_bin

Writing model to CuVac.check
 *********************** 
     Iteration:    11
         Max Force Component:             0.104312 eV/Ang (0)
         Max Displacement Component:      0.029585 Ang (0)

 *********************** 
 *********************** 
     Iteration:    12
         Max Force Component:             0.186196 eV/Ang (0)
         Max Displacement Component:      0.055054 Ang (0)

 *********************** 
  Saving model to checkpoint file...

Writing analysis data to CuVac.castep_bin

Writing model to CuVac.check
 *********************** 
     Iteration:    13
         Max Force Component:             0.104312 eV/Ang (0)
         Max Displacement Component:      0.000000 Ang (1)

 *********************** 
 *********************** 
     Iteration:    14
         Max Force Component:             0.135010 eV/Ang (0)
         Max Displacement Component:      0.022022 Ang (0)

 *********************** 
  Saving model to checkpoint file...

Writing analysis data to CuVac.castep_bin

Writing model to CuVac.check
 *********************** 
     Iteration:    15
         Max Force Component:             0.137150 eV/Ang (0)
         Max Displacement Component:      0.007126 Ang (0)

 *********************** 
 *********************** 
     Iteration:    16
         Max Force Component:             0.142801 eV/Ang (0)
         Max Displacement Component:      0.006909 Ang (0)

 *********************** 
  Saving model to checkpoint file...

Writing analysis data to CuVac.castep_bin

Writing model to CuVac.check
 *********************** 
     Iteration:    17
         Max Force Component:             0.166510 eV/Ang (0)
         Max Displacement Component:      0.028776 Ang (0)

 *********************** 
 *********************** 
     Iteration:    18
         Max Force Component:             0.228835 eV/Ang (0)
         Max Displacement Component:      0.078666 Ang (0)

 *********************** 
  Saving model to checkpoint file...

Writing analysis data to CuVac.castep_bin

Writing model to CuVac.check
 *********************** 
     Iteration:    19
         Max Force Component:             0.251717 eV/Ang (0)
         Max Displacement Component:      0.027028 Ang (0)

 *********************** 
 *********************** 
     Iteration:    20
         Max Force Component:             0.323489 eV/Ang (0)
         Max Displacement Component:      0.082366 Ang (0)

 *********************** 
  Saving model to checkpoint file...

Writing analysis data to CuVac.castep_bin

Writing model to CuVac.check
 *********************** 
     Iteration:    21
         Max Force Component:             0.327532 eV/Ang (0)
         Max Displacement Component:      0.111954 Ang (0)

 *********************** 
 *Warning* max. SCF cycles performed but system has not reached the groundstate.
  
Current total energy, E     =  -53825.77528744     eV
Current free energy (E-TS)  =  -53826.20502257     eV
(energies not corrected for finite basis set)
 
NB est. 0K energy (E-0.5TS)      =  -53825.99015501     eV
 
  ****************************************************************************
  Warning: electronic minimisation did not converge when finding ground state.
  ****************************************************************************
 First optimisation failed; retrying with randomised wavefunction
 *Warning* max. SCF cycles performed but system has not reached the groundstate.
  
Current total energy, E     =  -58011.67253907     eV
Current free energy (E-TS)  =  -58011.93915365     eV
(energies not corrected for finite basis set)
 
NB est. 0K energy (E-0.5TS)      =  -58011.80584636     eV
 
  ****************************************************************************
  Warning: electronic minimisation did not converge when finding ground state.
  ****************************************************************************
 *Warning* max. SCF cycles performed but system has not reached the groundstate.
  
Current total energy, E     =  -57937.93294001     eV
Current free energy (E-TS)  =  -57938.09383766     eV
(energies not corrected for finite basis set)
 
NB est. 0K energy (E-0.5TS)      =  -57938.01338883     eV
 
  ****************************************************************************
  Warning: electronic minimisation did not converge when finding ground state.
  ****************************************************************************
 First optimisation failed; retrying with randomised wavefunction
 *Warning* max. SCF cycles performed but system has not reached the groundstate.
  
Current total energy, E     =  -54955.62957608     eV
Current free energy (E-TS)  =  -54955.96685661     eV
(energies not corrected for finite basis set)
 
NB est. 0K energy (E-0.5TS)      =  -54955.79821634     eV
 
  ****************************************************************************
  Warning: electronic minimisation did not converge when finding ground state.
  ****************************************************************************
 *Warning* max. SCF cycles performed but system has not reached the groundstate.
  
Current total energy, E     =  -56900.77099247     eV
Current free energy (E-TS)  =  -56901.05973638     eV
(energies not corrected for finite basis set)
 
NB est. 0K energy (E-0.5TS)      =  -56900.91536442     eV
 
  ****************************************************************************
  Warning: electronic minimisation did not converge when finding ground state.
  ****************************************************************************
 First optimisation failed; retrying with randomised wavefunction
 *Warning* max. SCF cycles performed but system has not reached the groundstate.
  
Current total energy, E     =  -56900.35904963     eV
Current free energy (E-TS)  =  -56900.56063682     eV
(energies not corrected for finite basis set)
 
NB est. 0K energy (E-0.5TS)      =  -56900.45984323     eV
 
  ****************************************************************************
  Warning: electronic minimisation did not converge when finding ground state.
  ****************************************************************************
