 +-------------------------------------------------+
 |                                                 |
 |      CCC   AA    SSS  TTTTT  EEEEE  PPPP        |
 |     C     A  A  S       T    E      P   P       |
 |     C     AAAA   SS     T    EEE    PPPP        |
 |     C     A  A     S    T    E      P           |
 |      CCC  A  A  SSS     T    EEEEE  P           |
 |                                                 |
 +-------------------------------------------------+
 |                                                 |
 | Welcome to Academic Release CASTEP version 21.1 |          
 | Ab Initio Total Energy Program                  |
 |                                                 |
 | Authors:                                        |
 | M. Segall, M. Probert, C. Pickard, P. Hasnip,   |
 | S. Clark, K. Refson, J. R. Yates, M. Payne      |
 |                                                 |
 | Contributors:                                   |
 | P. Lindan, P. Haynes, J. White, V. Milman,      |
 | N. Govind, M. Gibson, P. Tulip, V. Cocula,      |
 | B. Montanari, D. Quigley, M. Glover,            |
 | L. Bernasconi, A. Perlov, M. Plummer,           |
 | E. McNellis, J. Meyer, J. Gale, D. Jochym       |
 | J. Aarons, B. Walker, R. Gillen, D. Jones       |
 | T. Green, I. J. Bush, C. J. Armstrong,          |
 | E. J. Higgins, E. L. Brown, M. S. McFly,        |
 | J. Wilkins, B-C. Shih, P. J. P. Byrne,          |
 | R. J. Maurer, J. C. Womack, J. Dziedzic,        |
 | A. Bartok-Partay, L. LeBlanc, T. K. Stenczel    |
 |                                                 |
 | Copyright (c) 2000 - 2020                       |
 |                                                 |
 |     Distributed under license from Cambridge    |
 |     Enterprise for academic use only.           |
 |                                                 |
 | Please cite                                     |
 |                                                 |
 |     "First principles methods using CASTEP"     |
 |                                                 |
 |         Zeitschrift fuer Kristallographie       |
 |           220(5-6) pp. 567-570 (2005)           |
 |                                                 |
 | S. J. Clark, M. D. Segall, C. J. Pickard,       |
 | P. J. Hasnip, M. J. Probert, K. Refson,         |
 | M. C. Payne                                     |
 |                                                 |
 |       in all publications arising from          |
 |              your use of CASTEP                 |
 |                                                 |
 +-------------------------------------------------+
 |                                                 |
 |              http://www.castep.org              |
 |                                                 |
 +-------------------------------------------------+
 
 
 
 Compiled for linux_x86_64_ifort on Wed, 11 Aug 2021 15:16:06 +0100
 from code version 
 b9537cc+  new-neb-implementation  Wed Aug 11 15:07:38 2021 +0100
 Compiler: Intel Fortran 18.0.3.222; Optimisation: fast
 MATHLIBS: Intel MKL(2018.0.3) (LAPACK version 3.7.0)
 FFT Lib : default
 Fundamental constants values: CODATA 2014
 
 Run started: Wed, 11 Aug 2021 15:51:36 +0100
 
 Atomic calculation performed for Al: 1s2 2s2 2p6 3s2 3p1
 
 Converged in 54 iterations to an ae energy of -6603.783 eV
 
   ============================================================                
   | Pseudopotential Report - Date of generation 11-08-2021   |                
   ------------------------------------------------------------                
   | Element: Al Ionic charge:  3.00 Level of theory: PBE     |                
   | Atomic Solver: Koelling-Harmon                           |                
   |                                                          |                
   |               Reference Electronic Structure             |                
   |         Orbital         Occupation         Energy        |                
   |            3s              2.000           -0.285        |                
   |            3p              1.000           -0.100        |                
   |                                                          |                
   |                 Pseudopotential Definition               |                
   |        Beta     l      e      Rc     scheme   norm       |                
   |          1      0   -0.285   2.192     qc      0         |                
   |          2      0    0.250   2.192     qc      0         |                
   |          3      1   -0.100   2.192     qc      0         |                
   |          4      1    0.250   2.192     qc      0         |                
   |          5      2    0.000   2.000     qc      0         |                
   |          6      2    0.250   2.000     qc      0         |                
   |         loc     3    0.000   2.192     pn      0         |                
   |                                                          |                
   | Augmentation charge Rinner = 1.398                       |                
   | Partial core correction Rc = 1.398                       |                
   ------------------------------------------------------------                
   | "3|2.2|2.2|1.4|4|5|5|30:31:32U2U2"                       |                
   ------------------------------------------------------------                
   |      Author: Chris J. Pickard, Cambridge University      |                
   ============================================================                
 
 Atomic calculation performed for Au:
 1s2 2s2 2p6 3s2 3p6 3d10 4s2 4p6 4d10 4f14 5s2 5p6 5d10 6s1
 
 Converged in 94 iterations to an ae energy of -517336.889 eV
 
   ============================================================                
   | Pseudopotential Report - Date of generation 11-08-2021   |                
   ------------------------------------------------------------                
   | Element: Au Ionic charge: 33.00 Level of theory: PBE     |                
   | Atomic Solver: Koelling-Harmon                           |                
   |                                                          |                
   |               Reference Electronic Structure             |                
   |         Orbital         Occupation         Energy        |                
   |            5s              2.000           -3.982        |                
   |            4f             14.000           -2.981        |                
   |            5p              6.000           -2.197        |                
   |            5d             10.000           -0.253        |                
   |            6s              1.000           -0.212        |                
   |                                                          |                
   |                 Pseudopotential Definition               |                
   |        Beta     l      e      Rc     scheme   norm       |                
   |          1      0   -3.982   2.392     qc      0         |                
   |          2      0   -0.212   2.392     qc      0         |                
   |          3      0    0.250   2.392     qc      0         |                
   |          4      1   -2.197   2.392     qc      0         |                
   |          5      1    0.250   2.392     qc      0         |                
   |          6      2   -0.253   2.392     qc      0         |                
   |          7      2    0.250   2.392     qc      0         |                
   |          8      3   -2.981   2.392     qc      0         |                
   |          9      3    0.250   2.392     qc      0         |                
   |         loc     3    0.000   2.392     pn      0         |                
   |                                                          |                
   | Augmentation charge Rinner = 1.686                       |                
   | Partial core correction Rc = 1.686                       |                
   ------------------------------------------------------------                
   | "3|2.4|9|10|11|50U:60:51:52:43(qc=6)"                    |                
   ------------------------------------------------------------                
   |      Author: Chris J. Pickard, Cambridge University      |                
   ============================================================                
 
 Pseudo atomic calculation performed for Al 3s2 3p1
 
 Converged in 14 iterations to a total energy of -107.1300 eV
 
 Pseudo atomic calculation performed for Au 4f14 5s2 5p6 5d10 6s1
 
 Converged in 33 iterations to a total energy of -14122.6592 eV
 Calculation parallelised over 16 processes.
 Data is distributed by k-point(16-way)

 ************************************ Title ************************************
 

 ***************************** General Parameters ******************************
  
 output verbosity                               : normal  (1)
 write checkpoint data to                       : AlAu.check
 type of calculation                            : geometry optimization
 stress calculation                             : on
 density difference calculation                 : off
 electron localisation func (ELF) calculation   : off
 Hirshfeld analysis                             : off
 polarisation (Berry phase) analysis            : off
 molecular orbital projected DOS                : off
 deltaSCF calculation                           : off
 unlimited duration calculation
 timing information                             : on
 memory usage estimate                          : on
 write extra output files                       : on
 write final potential to formatted file        : off
 write final density to formatted file          : off
 write structure in CELL formatted file         : on
 write BibTeX reference list                    : on
 write OTFG pseudopotential files               : on
 write electrostatic potential file             : on
 write bands file                               : on
 checkpoint writing                             : both castep_bin and check files
  
 output         length unit                     : A
 output           mass unit                     : amu
 output           time unit                     : ps
 output         charge unit                     : e
 output           spin unit                     : hbar/2
 output         energy unit                     : eV
 output          force unit                     : eV/A
 output       velocity unit                     : A/ps
 output       pressure unit                     : GPa
 output     inv_length unit                     : 1/A
 output      frequency unit                     : cm-1
 output force constant unit                     : eV/A**2
 output         volume unit                     : A**3
 output   IR intensity unit                     : (D/A)**2/amu
 output         dipole unit                     : D
 output         efield unit                     : eV/A/e
 output        entropy unit                     : J/mol/K
 output    efield chi2 unit                     : pm/V
  
 wavefunctions paging                           : none
 random number generator seed                   : randomised (155136531)
 data distribution                              : optimal for this architecture
 optimization strategy                          : balance speed and memory

 *********************** Exchange-Correlation Parameters ***********************
  
 using functional                               : Perdew Burke Ernzerhof
 relativistic treatment                         : Koelling-Harmon
 DFT+D: Semi-empirical dispersion correction    : off

 ************************* Pseudopotential Parameters **************************
  
 pseudopotential representation                 : reciprocal space
 <beta|phi> representation                      : reciprocal space
 spin-orbit coupling                            : off

 **************************** Basis Set Parameters *****************************
  
 plane wave basis set cut-off                   :   400.0000   eV
 size of standard grid                          :     1.7500
 size of   fine   gmax                          :    17.9311   1/A
 finite basis set correction                    : automatic
 number of sample energies                      :          3
           sample  spacing                      :     5.0000   eV

 **************************** Electronic Parameters ****************************
  
 number of  electrons                           :  69.00    
 net charge of system                           :  0.000    
 net spin   of system                           :  1.000    
 number of  up  spins                           :  35.00    
 number of down spins                           :  34.00    
 treating system as spin-polarized
 number of bands                                :         42

 ********************* Electronic Minimization Parameters **********************
  
 Method: Treating system as metallic with density mixing treatment of electrons,
         and number of  SD  steps               :          1
         and number of  CG  steps               :          4
  
 total energy / atom convergence tol.           : 0.1000E-04   eV
 eigen-energy convergence tolerance             : 0.1000E-05   eV
 max force / atom convergence tol.              : ignored
 convergence tolerance window                   :          3   cycles
 max. number of SCF cycles                      :        100
 number of fixed-spin iterations                :         10
 smearing scheme                                : Gaussian
 smearing width                                 : 0.2000       eV
 Fermi energy convergence tolerance             : 0.2721E-13   eV
 periodic dipole correction                     : NONE

 ************************** Density Mixing Parameters **************************
  
 density-mixing scheme                          : Broyden
 max. length of mixing history                  :         20
 charge density mixing amplitude                : 0.8000    
   spin density mixing amplitude                :  2.000    
 cut-off energy for mixing                      :  400.0       eV

 *********************** Population Analysis Parameters ************************
  
 Population analysis with cutoff                :  3.000       A
 Population analysis output                     : summary and pdos components

 ********************** Geometry Optimization Parameters ***********************
  
 optimization method                            : LBFGS
 max. no. of LBFGS updates                      : unbounded
 variable cell method                           : fixed basis quality
 max. number of steps                           :         30
 estimated bulk modulus                         :  500.0       GPa
 estimated <frequency>                          :  1668.       cm-1
 geom line minimiser                            : on
 with line minimiser tolerance                  :     0.4000
  with spin fully able to relax for all steps
 total energy convergence tolerance             : 0.2000E-04   eV/atom
        max ionic |force| tolerance             : 0.5000E-01   eV/A
 max ionic |displacement| tolerance             : 0.1000E-02   A
   max |stress component| tolerance             : 0.1000       GPa
 convergence tolerance window                   :          2   steps
 backup results every                           :          5   steps
 write geom trajectory file                     : on

 *******************************************************************************
  
 
                           -------------------------------
                                      Unit Cell
                           -------------------------------
        Real Lattice(A)                      Reciprocal Lattice(1/A)
     5.7275650     0.0000000     0.0000000        1.097008119   0.000000000   0.000000000
     0.0000000     5.7275650     0.0000000        0.000000000   1.097008119   0.000000000
     0.0000000     0.0000000    13.7500000        0.000000000   0.000000000   0.456958931
 
                       Lattice parameters(A)       Cell Angles
                    a =      5.727565          alpha =   90.000000
                    b =      5.727565          beta  =   90.000000
                    c =     13.750000          gamma =   90.000000
 
                       Current cell volume =           451.068761       A**3
                                   density =             1.154469   AMU/A**3
                                           =             1.917041     g/cm^3
 
                           -------------------------------
                                     Cell Contents
                           -------------------------------
                         Total number of ions in cell =   13
                      Total number of species in cell =    2
                        Max number of any one species =   12
 
            xxxxxxxxxxxxxxxxxxxxxxxxxxxxxxxxxxxxxxxxxxxxxxxxxxxxxxxxxxxx
            x  Element    Atom        Fractional coordinates of atoms  x
            x            Number           u          v          w      x
            x----------------------------------------------------------x
            x  Al           1         0.000000   0.000000   0.290909   x 
            x  Al           2         0.500000   0.000000   0.290909   x 
            x  Al           3         0.000000   0.500000   0.290909   x 
            x  Al           4         0.500000   0.500000   0.290909   x 
            x  Al           5         0.250000   0.250000   0.438182   x 
            x  Al           6         0.750000   0.250000   0.438182   x 
            x  Al           7         0.250000   0.750000   0.438182   x 
            x  Al           8         0.750000   0.750000   0.438182   x 
            x  Al           9         0.000000   0.000000   0.585455   x 
            x  Al          10         0.500000   0.000000   0.585455   x 
            x  Al          11         0.000000   0.500000   0.585455   x 
            x  Al          12         0.500000   0.500000   0.585455   x 
            x  Au           1         0.250000   0.250000   0.709091   x 
            xxxxxxxxxxxxxxxxxxxxxxxxxxxxxxxxxxxxxxxxxxxxxxxxxxxxxxxxxxxx
 
 
                         No user defined ionic velocities
 
                           -------------------------------
                                   Details of Species
                           -------------------------------
 
                               Mass of species in AMU
                                    Al   26.9815400
                                    Au  196.9665500
 
                          Electric Quadrupole Moment (Barn)
                                    Al    0.1466000 Isotope 27
                                    Au    0.5470000 Isotope197
 
                          Files used for pseudopotentials:
                                    Al 3|2.2|2.2|1.4|4|5|5|30:31:32U2U2
                                    Au 3|2.4|9|10|11|50U:60:51:52:43(qc=6)
 
                           -------------------------------
                              k-Points For BZ Sampling
                           -------------------------------
                       MP grid size for SCF calculation is  7  7  3
                            with an offset of   0.000  0.000  0.000
                       Number of kpoints used =            74
 
                           -------------------------------
                               Symmetry and Constraints
                           -------------------------------
 
                      Maximum deviation from symmetry =  0.00000         ANG
 
                      Number of symmetry operations   =           1
                      Number of ionic constraints     =           3
                      Point group of crystal =     1: C1, 1, 1
                      Space group of crystal =    99: P4mm, P 4 -2
 
             Set iprint > 1 for details on symmetry rotations/translations
 
                         Centre of mass is constrained
             Set iprint > 1 for details of linear ionic constraints
 
                         Number of cell constraints= 5
                         Cell constraints are:  1 1 0 0 0 0
 
                         External pressure/stress (GPa)
                          0.00000   0.00000   0.00000
                                    0.00000   0.00000
                                              0.00000
  
+---------------- MEMORY AND SCRATCH DISK ESTIMATES PER PROCESS --------------+
|                                                     Memory          Disk    |
| Baseline code, static data and system overhead      497.0 MB         0.0 MB |
| BLAS internal memory storage                          0.0 MB         0.0 MB |
| Model and support data                              715.4 MB      1173.3 MB |
| Electronic energy minimisation requirements         169.3 MB         0.0 MB |
| Force calculation requirements                       22.9 MB         0.0 MB |
| Stress calculation requirements                      22.9 MB         0.0 MB |
|                                               ----------------------------- |
| Approx. total storage required per process         1381.7 MB      1173.3 MB |
|                                                                             |
| Requirements will fluctuate during execution and may exceed these estimates |
+-----------------------------------------------------------------------------+
Calculating finite basis set correction with  3 cut-off energies.
Calculating total energy with cut-off of  390.000 eV.
Calculating approximate eigenstates for fixed initial Hamiltonian
Cut-off for approx. calculation is   89.988 eV
Improving approx. states at cut-off of  244.902 eV
Resetting cut-off to  390.049 eV
------------------------------------------------------------------------ <-- SCF
SCF loop      Energy           Fermi           Energy gain       Timer   <-- SCF
                               energy          per atom          (sec)   <-- SCF
------------------------------------------------------------------------ <-- SCF
Initial  -1.55330115E+004  0.00000000E+000                        58.90  <-- SCF
      1  -1.54570842E+004 -3.44595468E-001  -5.84056389E+000      81.92  <-- SCF
      2  -1.54574691E+004 -3.65258887E-001   2.96098760E-002     101.64  <-- SCF
      3  -1.54561854E+004 -1.34309247E-001  -9.87502697E-002     119.10  <-- SCF
      4  -1.54561173E+004 -5.45854253E-002  -5.23884220E-003     139.42  <-- SCF
      5  -1.54560925E+004  9.68332152E-003  -1.90775526E-003     157.66  <-- SCF
      6  -1.54560542E+004  9.11496986E-002  -2.94676184E-003     174.94  <-- SCF
      7  -1.54560190E+004  2.21681245E-001  -2.70705934E-003     191.99  <-- SCF
      8  -1.54560101E+004  3.30498364E-001  -6.86455544E-004     209.22  <-- SCF
      9  -1.54560179E+004  3.52196687E-001   5.99196884E-004     225.96  <-- SCF
     10  -1.54560772E+004  3.54640413E-001   4.56496266E-003     241.67  <-- SCF
     11  -1.54549352E+004  3.65477196E-001  -8.78479104E-002     255.90  <-- SCF
     12  -1.54555502E+004  3.68294791E-001   4.73131328E-002     270.68  <-- SCF
     13  -1.54557298E+004  3.77543738E-001   1.38129520E-002     285.51  <-- SCF
     14  -1.54559574E+004  3.90516538E-001   1.75064655E-002     299.91  <-- SCF
     15  -1.54560926E+004  3.98048376E-001   1.03971427E-002     313.91  <-- SCF
     16  -1.54560883E+004  3.96278428E-001  -3.25563515E-004     328.32  <-- SCF
     17  -1.54560962E+004  3.94362735E-001   6.04613224E-004     341.43  <-- SCF
     18  -1.54561009E+004  3.92678029E-001   3.64742198E-004     354.87  <-- SCF
     19  -1.54561031E+004  3.91875193E-001   1.66366556E-004     367.23  <-- SCF
     20  -1.54561036E+004  3.90252902E-001   4.27526387E-005     379.84  <-- SCF
     21  -1.54561046E+004  3.87775579E-001   7.51374042E-005     392.11  <-- SCF
     22  -1.54561051E+004  3.85698803E-001   3.45950899E-005     404.52  <-- SCF
     23  -1.54561050E+004  3.84762729E-001  -3.92760773E-006     417.12  <-- SCF
     24  -1.54561050E+004  3.84700496E-001  -9.79175479E-007     428.35  <-- SCF
------------------------------------------------------------------------ <-- SCF
 
Integrated Spin Density     =    0.144717E-03 hbar/2                        
Integrated |Spin Density|   =    0.880831E-03 hbar/2                        
 
Final energy, E             =  -15455.99751546     eV
Final free energy (E-TS)    =  -15456.10501001     eV
(energies not corrected for finite basis set)
 
NB est. 0K energy (E-0.5TS)      =  -15456.05126274     eV
 
Calculating total energy with cut-off of  395.000 eV.
------------------------------------------------------------------------ <-- SCF
SCF loop      Energy           Fermi           Energy gain       Timer   <-- SCF
                               energy          per atom          (sec)   <-- SCF
------------------------------------------------------------------------ <-- SCF
Initial  -1.54559975E+004  0.00000000E+000                       435.14  <-- SCF
      1  -1.54561058E+004  3.84595526E-001   8.32721456E-003     453.27  <-- SCF
      2  -1.54561058E+004  3.84595523E-001   7.73203733E-009     464.09  <-- SCF
      3  -1.54561058E+004  3.84637611E-001  -2.70045425E-009     474.93  <-- SCF
      4  -1.54561058E+004  3.84654406E-001   1.25561128E-008     485.76  <-- SCF
------------------------------------------------------------------------ <-- SCF
 
Integrated Spin Density     =   -0.914645E-05 hbar/2                        
Integrated |Spin Density|   =    0.111875E-03 hbar/2                        
 
Final energy, E             =  -15455.99827302     eV
Final free energy (E-TS)    =  -15456.10576625     eV
(energies not corrected for finite basis set)
 
NB est. 0K energy (E-0.5TS)      =  -15456.05201964     eV
 
Calculating total energy with cut-off of  400.000 eV.
------------------------------------------------------------------------ <-- SCF
SCF loop      Energy           Fermi           Energy gain       Timer   <-- SCF
                               energy          per atom          (sec)   <-- SCF
------------------------------------------------------------------------ <-- SCF
Initial  -1.54559983E+004  0.00000000E+000                       492.47  <-- SCF
      1  -1.54561064E+004  3.84780891E-001   8.31591916E-003     510.83  <-- SCF
      2  -1.54561064E+004  3.84780890E-001   7.46289618E-009     521.80  <-- SCF
      3  -1.54561064E+004  3.84767509E-001   5.25836602E-009     532.77  <-- SCF
      4  -1.54561064E+004  3.84756518E-001   8.11230926E-009     543.76  <-- SCF
------------------------------------------------------------------------ <-- SCF
 
Integrated Spin Density     =   -0.410220E-05 hbar/2                        
Integrated |Spin Density|   =    0.270981E-04 hbar/2                        
 
Final energy, E             =  -15455.99888608     eV
Final free energy (E-TS)    =  -15456.10638047     eV
(energies not corrected for finite basis set)
 
NB est. 0K energy (E-0.5TS)      =  -15456.05263327     eV
 
 For future reference: finite basis dEtot/dlog(Ecut) =      -0.054192eV
 Total energy corrected for finite basis set =  -15456.106375 eV
 
+---------------- MEMORY AND SCRATCH DISK ESTIMATES PER PROCESS --------------+
|                                                     Memory          Disk    |
| Model and support data                              716.9 MB      1173.3 MB |
| Electronic energy minimisation requirements         169.3 MB         0.0 MB |
| Geometry minimisation requirements                  226.9 MB         0.0 MB |
|                                               ----------------------------- |
| Approx. total storage required per process         1113.1 MB      1173.3 MB |
|                                                                             |
| Requirements will fluctuate during execution and may exceed these estimates |
+-----------------------------------------------------------------------------+
 
 
 ************************************** Forces **************************************
 *                                                                                  *
 *                           Cartesian components (eV/A)                            *
 * -------------------------------------------------------------------------------- *
 *                         x                    y                    z              *
 *                                                                                  *
 * Al              1     -0.01129             -0.01129             -0.15641         *
 * Al              2      0.01129             -0.01129             -0.15641         *
 * Al              3     -0.01129              0.01129             -0.15641         *
 * Al              4      0.01129              0.01129             -0.15641         *
 * Al              5      0.00000              0.00000             -0.00443         *
 * Al              6     -0.00000              0.00000              0.11253         *
 * Al              7      0.00000             -0.00000              0.11253         *
 * Al              8     -0.00000             -0.00000             -0.02571         *
 * Al              9     -0.20889             -0.20889              0.32533         *
 * Al             10      0.20889             -0.20889              0.32533         *
 * Al             11     -0.20889              0.20889              0.32533         *
 * Al             12      0.20889              0.20889              0.32533         *
 * Au              1      0.00000              0.00000             -0.87060         *
 *                                                                                  *
 ************************************************************************************
 
 ***************** Stress Tensor *****************
 *                                               *
 *          Cartesian components (GPa)           *
 * --------------------------------------------- *
 *             x             y             z     *
 *                                               *
 *  x      2.063900      0.000000      0.000000  *
 *  y      0.000000      2.063901     -0.000000  *
 *  z      0.000000     -0.000000     -0.216516  *
 *                                               *
 *  Pressure:   -1.3038                          *
 *                                               *
 *************************************************
 
 *********** Constrained Stress Tensor ***********
 *                                               *
 *          Cartesian components (GPa)           *
 * --------------------------------------------- *
 *             x             y             z     *
 *                                               *
 *  x      2.063900      0.000000      0.000000  *
 *  y      0.000000      2.063900     -0.000000  *
 *  z      0.000000     -0.000000      0.000000  *
 *                                               *
 *  Pressure:   -1.3759                          *
 *                                               *
 *************************************************
 LBFGS: finished iteration     0 with enthalpy= -1.54561064E+004 eV
  
 +-----------+-----------------+-----------------+------------+-----+ <-- LBFGS
 | Parameter |      value      |    tolerance    |    units   | OK? | <-- LBFGS
 +-----------+-----------------+-----------------+------------+-----+ <-- LBFGS
 |  dE/ion   |   0.000000E+000 |   2.000000E-005 |         eV | No  | <-- LBFGS
 |  |F|max   |   8.705968E-001 |   5.000000E-002 |       eV/A | No  | <-- LBFGS
 |  |dR|max  |   0.000000E+000 |   1.000000E-003 |          A | No  | <-- LBFGS
 |   Smax    |   2.063900E+000 |   1.000000E-001 |        GPa | No  | <-- LBFGS
 +-----------+-----------------+-----------------+------------+-----+ <-- LBFGS
  

================================================================================
 Starting LBFGS iteration          1 ...
================================================================================
  
 +------------+-------------+-------------+-----------------+ <-- min LBFGS
 |    Step    |   lambda    |   F.delta'  |    enthalpy     | <-- min LBFGS
 +------------+-------------+-------------+-----------------+ <-- min LBFGS
 |  previous  |    0.000000 |    0.373154 |   -15456.106375 | <-- min LBFGS
 +------------+-------------+-------------+-----------------+ <-- min LBFGS
  

--------------------------------------------------------------------------------
 LBFGS: starting iteration         1 with trial guess (lambda=  1.000000)
--------------------------------------------------------------------------------
 
                           -------------------------------
                                      Unit Cell
                           -------------------------------
        Real Lattice(A)              Reciprocal Lattice(1/A)
     5.7196843    -0.0000000    -0.0000000        1.098519609   0.000000000   0.000000000
    -0.0000000     5.7196843     0.0000000        0.000000000   1.098519609  -0.000000000
    -0.0000000     0.0000000    13.7500000        0.000000000  -0.000000000   0.456958931
 
                       Lattice parameters(A)       Cell Angles
                    a =      5.719684          alpha =   90.000000
                    b =      5.719684          beta  =   90.000000
                    c =     13.750000          gamma =   90.000000
 
                Current cell volume =           449.828334 A**3
                            density =             1.157653 amu/A**3
                                    =             1.922328 g/cm^3
 
                           -------------------------------
                                     Cell Contents
                           -------------------------------
 
            xxxxxxxxxxxxxxxxxxxxxxxxxxxxxxxxxxxxxxxxxxxxxxxxxxxxxxxxxxxxxxxxx
            x  Element         Atom        Fractional coordinates of atoms  x
            x                 Number           u          v          w      x
            x---------------------------------------------------------------x
            x  Al                1        -0.000005  -0.000005   0.290881   x
            x  Al                2         0.500005  -0.000005   0.290881   x
            x  Al                3        -0.000005   0.500005   0.290881   x
            x  Al                4         0.500005   0.500005   0.290881   x
            x  Al                5         0.250000   0.250000   0.438181   x
            x  Al                6         0.750000   0.250000   0.438202   x
            x  Al                7         0.250000   0.750000   0.438202   x
            x  Al                8         0.750000   0.750000   0.438177   x
            x  Al                9        -0.000089  -0.000089   0.585512   x
            x  Al               10         0.500089  -0.000089   0.585512   x
            x  Al               11        -0.000089   0.500089   0.585512   x
            x  Al               12         0.500089   0.500089   0.585512   x
            x  Au                1         0.250000   0.250000   0.708936   x
            xxxxxxxxxxxxxxxxxxxxxxxxxxxxxxxxxxxxxxxxxxxxxxxxxxxxxxxxxxxxxxxxx
 
 
------------------------------------------------------------------------ <-- SCF
SCF loop      Energy           Fermi           Energy gain       Timer   <-- SCF
                               energy          per atom          (sec)   <-- SCF
------------------------------------------------------------------------ <-- SCF
Initial  -1.54560094E+004  0.00000000E+000                       660.05  <-- SCF
      1  -1.54561389E+004  3.90089688E-001   9.96604256E-003     680.26  <-- SCF
      2  -1.54561393E+004  3.90086580E-001   2.86760604E-005     697.91  <-- SCF
      3  -1.54561366E+004  3.83973034E-001  -2.09648715E-004     715.02  <-- SCF
      4  -1.54561260E+004  3.88623105E-001  -8.16292211E-004     730.83  <-- SCF
      5  -1.54561260E+004  3.89390009E-001   6.65354567E-006     745.77  <-- SCF
      6  -1.54561260E+004  3.90343208E-001  -3.72073242E-007     756.99  <-- SCF
      7  -1.54561260E+004  3.91729019E-001  -1.84069225E-007     767.89  <-- SCF
------------------------------------------------------------------------ <-- SCF
 
Integrated Spin Density     =   -0.344342E-05 hbar/2                        
Integrated |Spin Density|   =    0.407019E-04 hbar/2                        
 
Final energy, E             =  -15456.01903547     eV
Final free energy (E-TS)    =  -15456.12603123     eV
(energies not corrected for finite basis set)
 
NB est. 0K energy (E-0.5TS)      =  -15456.07253335     eV
 
 
 ************************************** Forces **************************************
 *                                                                                  *
 *                           Cartesian components (eV/A)                            *
 * -------------------------------------------------------------------------------- *
 *                         x                    y                    z              *
 *                                                                                  *
 * Al              1     -0.01234             -0.01233             -0.16264         *
 * Al              2      0.01233             -0.01233             -0.16264         *
 * Al              3     -0.01234              0.01233             -0.16264         *
 * Al              4      0.01233              0.01233             -0.16264         *
 * Al              5     -0.00000             -0.00000             -0.00204         *
 * Al              6     -0.00001             -0.00000              0.11270         *
 * Al              7     -0.00000             -0.00000              0.11270         *
 * Al              8     -0.00001             -0.00000             -0.02800         *
 * Al              9     -0.21247             -0.21246              0.32381         *
 * Al             10      0.21246             -0.21246              0.32380         *
 * Al             11     -0.21247              0.21246              0.32380         *
 * Al             12      0.21246              0.21246              0.32380         *
 * Au              1      0.00006              0.00003             -0.84000         *
 *                                                                                  *
 ************************************************************************************
 
 ***************** Stress Tensor *****************
 *                                               *
 *          Cartesian components (GPa)           *
 * --------------------------------------------- *
 *             x             y             z     *
 *                                               *
 *  x      1.969639     -0.000000      0.000000  *
 *  y     -0.000000      1.969635     -0.000000  *
 *  z      0.000000     -0.000000     -0.273817  *
 *                                               *
 *  Pressure:   -1.2218                          *
 *                                               *
 *************************************************
 
 *********** Constrained Stress Tensor ***********
 *                                               *
 *          Cartesian components (GPa)           *
 * --------------------------------------------- *
 *             x             y             z     *
 *                                               *
 *  x      1.969637     -0.000000      0.000000  *
 *  y     -0.000000      1.969637     -0.000000  *
 *  z      0.000000     -0.000000     -0.000000  *
 *                                               *
 *  Pressure:   -1.3131                          *
 *                                               *
 *************************************************
  
 +------------+-------------+-------------+-----------------+ <-- min LBFGS
 |    Step    |   lambda    |   F.delta'  |    enthalpy     | <-- min LBFGS
 +------------+-------------+-------------+-----------------+ <-- min LBFGS
 |  previous  |    0.000000 |    0.373154 |   -15456.106375 | <-- min LBFGS
 | trial step |    1.000000 |    0.358290 |   -15456.126027 | <-- min LBFGS
 +------------+-------------+-------------+-----------------+ <-- min LBFGS
  
 LBFGS: finished iteration     1 with enthalpy= -1.54561260E+004 eV
  
 +-----------+-----------------+-----------------+------------+-----+ <-- LBFGS
 | Parameter |      value      |    tolerance    |    units   | OK? | <-- LBFGS
 +-----------+-----------------+-----------------+------------+-----+ <-- LBFGS
 |  dE/ion   |   1.511668E-003 |   2.000000E-005 |         eV | No  | <-- LBFGS
 |  |F|max   |   8.399973E-001 |   5.000000E-002 |       eV/A | No  | <-- LBFGS
 |  |dR|max  |   2.124696E-003 |   1.000000E-003 |          A | No  | <-- LBFGS
 |   Smax    |   1.969637E+000 |   1.000000E-001 |        GPa | No  | <-- LBFGS
 +-----------+-----------------+-----------------+------------+-----+ <-- LBFGS
  

================================================================================
 Starting LBFGS iteration          2 ...
================================================================================
  
 +------------+-------------+-------------+-----------------+ <-- min LBFGS
 |    Step    |   lambda    |   F.delta'  |    enthalpy     | <-- min LBFGS
 +------------+-------------+-------------+-----------------+ <-- min LBFGS
 |  previous  |    0.000000 |    0.360590 |   -15456.126027 | <-- min LBFGS
 +------------+-------------+-------------+-----------------+ <-- min LBFGS
  

--------------------------------------------------------------------------------
 LBFGS: starting iteration         2 with trial guess (lambda=  1.000000)
--------------------------------------------------------------------------------
 
                           -------------------------------
                                      Unit Cell
                           -------------------------------
        Real Lattice(A)              Reciprocal Lattice(1/A)
     5.7121738     0.0000000    -0.0000000        1.099963962  -0.000000000   0.000000000
     0.0000000     5.7121738     0.0000000       -0.000000000   1.099963962  -0.000000000
    -0.0000000     0.0000000    13.7500000        0.000000000  -0.000000000   0.456958931
 
                       Lattice parameters(A)       Cell Angles
                    a =      5.712174          alpha =   90.000000
                    b =      5.712174          beta  =   90.000000
                    c =     13.750000          gamma =   90.000000
 
                Current cell volume =           448.647778 A**3
                            density =             1.160699 amu/A**3
                                    =             1.927386 g/cm^3
 
                           -------------------------------
                                     Cell Contents
                           -------------------------------
 
            xxxxxxxxxxxxxxxxxxxxxxxxxxxxxxxxxxxxxxxxxxxxxxxxxxxxxxxxxxxxxxxxx
            x  Element         Atom        Fractional coordinates of atoms  x
            x                 Number           u          v          w      x
            x---------------------------------------------------------------x
            x  Al                1        -0.000010  -0.000010   0.290852   x
            x  Al                2         0.500010  -0.000010   0.290852   x
            x  Al                3        -0.000010   0.500010   0.290852   x
            x  Al                4         0.500010   0.500010   0.290852   x
            x  Al                5         0.250000   0.250000   0.438181   x
            x  Al                6         0.750000   0.250000   0.438222   x
            x  Al                7         0.250000   0.750000   0.438222   x
            x  Al                8         0.750000   0.750000   0.438172   x
            x  Al                9        -0.000179  -0.000179   0.585570   x
            x  Al               10         0.500179  -0.000179   0.585570   x
            x  Al               11        -0.000179   0.500179   0.585570   x
            x  Al               12         0.500179   0.500179   0.585570   x
            x  Au                1         0.250000   0.250000   0.708787   x
            xxxxxxxxxxxxxxxxxxxxxxxxxxxxxxxxxxxxxxxxxxxxxxxxxxxxxxxxxxxxxxxxx
 
 
------------------------------------------------------------------------ <-- SCF
SCF loop      Energy           Fermi           Energy gain       Timer   <-- SCF
                               energy          per atom          (sec)   <-- SCF
------------------------------------------------------------------------ <-- SCF
Initial  -1.54560288E+004  0.00000000E+000                       885.25  <-- SCF
      1  -1.54561552E+004  4.05692360E-001   9.72018389E-003     905.52  <-- SCF
      2  -1.54561555E+004  4.05690036E-001   2.57313509E-005     922.57  <-- SCF
      3  -1.54561530E+004  3.98796052E-001  -1.94299259E-004     939.56  <-- SCF
      4  -1.54561441E+004  4.02792573E-001  -6.85959725E-004     955.35  <-- SCF
      5  -1.54561442E+004  4.03018804E-001   5.25696059E-006     969.87  <-- SCF
      6  -1.54561442E+004  4.03524415E-001   7.82403553E-008     980.64  <-- SCF
      7  -1.54561442E+004  4.04148504E-001   1.80636307E-007     991.21  <-- SCF
------------------------------------------------------------------------ <-- SCF
 
Integrated Spin Density     =   -0.144708E-05 hbar/2                        
Integrated |Spin Density|   =    0.399447E-04 hbar/2                        
 
Final energy, E             =  -15456.03768224     eV
Final free energy (E-TS)    =  -15456.14417294     eV
(energies not corrected for finite basis set)
 
NB est. 0K energy (E-0.5TS)      =  -15456.09092759     eV
 
 
 ************************************** Forces **************************************
 *                                                                                  *
 *                           Cartesian components (eV/A)                            *
 * -------------------------------------------------------------------------------- *
 *                         x                    y                    z              *
 *                                                                                  *
 * Al              1     -0.01336             -0.01336             -0.16734         *
 * Al              2      0.01336             -0.01336             -0.16734         *
 * Al              3     -0.01336              0.01336             -0.16734         *
 * Al              4      0.01336              0.01336             -0.16734         *
 * Al              5      0.00000             -0.00000              0.00110         *
 * Al              6     -0.00000             -0.00000              0.11348         *
 * Al              7      0.00000             -0.00000              0.11348         *
 * Al              8     -0.00000             -0.00000             -0.02884         *
 * Al              9     -0.21630             -0.21630              0.32382         *
 * Al             10      0.21630             -0.21630              0.32382         *
 * Al             11     -0.21630              0.21630              0.32382         *
 * Al             12      0.21630              0.21630              0.32382         *
 * Au              1      0.00001              0.00002             -0.82515         *
 *                                                                                  *
 ************************************************************************************
 
 ***************** Stress Tensor *****************
 *                                               *
 *          Cartesian components (GPa)           *
 * --------------------------------------------- *
 *             x             y             z     *
 *                                               *
 *  x      1.884514     -0.000001      0.000001  *
 *  y     -0.000001      1.884507     -0.000002  *
 *  z      0.000001     -0.000002     -0.314099  *
 *                                               *
 *  Pressure:   -1.1516                          *
 *                                               *
 *************************************************
 
 *********** Constrained Stress Tensor ***********
 *                                               *
 *          Cartesian components (GPa)           *
 * --------------------------------------------- *
 *             x             y             z     *
 *                                               *
 *  x      1.884511      0.000000     -0.000000  *
 *  y      0.000000      1.884511     -0.000000  *
 *  z     -0.000000     -0.000000     -0.000000  *
 *                                               *
 *  Pressure:   -1.2563                          *
 *                                               *
 *************************************************
  
 +------------+-------------+-------------+-----------------+ <-- min LBFGS
 |    Step    |   lambda    |   F.delta'  |    enthalpy     | <-- min LBFGS
 +------------+-------------+-------------+-----------------+ <-- min LBFGS
 |  previous  |    0.000000 |    0.360590 |   -15456.126027 | <-- min LBFGS
 | trial step |    1.000000 |    0.347835 |   -15456.144171 | <-- min LBFGS
 +------------+-------------+-------------+-----------------+ <-- min LBFGS
  
 LBFGS: finished iteration     2 with enthalpy= -1.54561442E+004 eV
  
 +-----------+-----------------+-----------------+------------+-----+ <-- LBFGS
 | Parameter |      value      |    tolerance    |    units   | OK? | <-- LBFGS
 +-----------+-----------------+-----------------+------------+-----+ <-- LBFGS
 |  dE/ion   |   1.395681E-003 |   2.000000E-005 |         eV | No  | <-- LBFGS
 |  |F|max   |   8.251497E-001 |   5.000000E-002 |       eV/A | No  | <-- LBFGS
 |  |dR|max  |   2.050018E-003 |   1.000000E-003 |          A | No  | <-- LBFGS
 |   Smax    |   1.884511E+000 |   1.000000E-001 |        GPa | No  | <-- LBFGS
 +-----------+-----------------+-----------------+------------+-----+ <-- LBFGS
  

================================================================================
 Starting LBFGS iteration          3 ...
================================================================================
  
 +------------+-------------+-------------+-----------------+ <-- min LBFGS
 |    Step    |   lambda    |   F.delta'  |    enthalpy     | <-- min LBFGS
 +------------+-------------+-------------+-----------------+ <-- min LBFGS
 |  previous  |    0.000000 |    0.350698 |   -15456.144171 | <-- min LBFGS
 +------------+-------------+-------------+-----------------+ <-- min LBFGS
  

--------------------------------------------------------------------------------
 LBFGS: starting iteration         3 with trial guess (lambda=  1.000000)
--------------------------------------------------------------------------------
 
                           -------------------------------
                                      Unit Cell
                           -------------------------------
        Real Lattice(A)              Reciprocal Lattice(1/A)
     5.7049973     0.0000000    -0.0000000        1.101347630  -0.000000000   0.000000000
     0.0000000     5.7049973     0.0000000       -0.000000000   1.101347630  -0.000000000
    -0.0000000     0.0000000    13.7500000        0.000000000  -0.000000000   0.456958931
 
                       Lattice parameters(A)       Cell Angles
                    a =      5.704997          alpha =   90.000000
                    b =      5.704997          beta  =   90.000000
                    c =     13.750000          gamma =   90.000000
 
                Current cell volume =           447.521178 A**3
                            density =             1.163621 amu/A**3
                                    =             1.932238 g/cm^3
 
                           -------------------------------
                                     Cell Contents
                           -------------------------------
 
            xxxxxxxxxxxxxxxxxxxxxxxxxxxxxxxxxxxxxxxxxxxxxxxxxxxxxxxxxxxxxxxxx
            x  Element         Atom        Fractional coordinates of atoms  x
            x                 Number           u          v          w      x
            x---------------------------------------------------------------x
            x  Al                1        -0.000016  -0.000016   0.290823   x
            x  Al                2         0.500016  -0.000016   0.290823   x
            x  Al                3        -0.000016   0.500016   0.290823   x
            x  Al                4         0.500016   0.500016   0.290823   x
            x  Al                5         0.250000   0.250000   0.438181   x
            x  Al                6         0.750000   0.250000   0.438242   x
            x  Al                7         0.250000   0.750000   0.438242   x
            x  Al                8         0.750000   0.750000   0.438167   x
            x  Al                9        -0.000271  -0.000271   0.585627   x
            x  Al               10         0.500271  -0.000271   0.585627   x
            x  Al               11        -0.000271   0.500271   0.585627   x
            x  Al               12         0.500271   0.500271   0.585627   x
            x  Au                1         0.250000   0.250000   0.708641   x
            xxxxxxxxxxxxxxxxxxxxxxxxxxxxxxxxxxxxxxxxxxxxxxxxxxxxxxxxxxxxxxxxx
 
 
------------------------------------------------------------------------ <-- SCF
SCF loop      Energy           Fermi           Energy gain       Timer   <-- SCF
                               energy          per atom          (sec)   <-- SCF
------------------------------------------------------------------------ <-- SCF
Initial  -1.54560467E+004  0.00000000E+000                      1108.95  <-- SCF
      1  -1.54561714E+004  4.15190946E-001   9.59657292E-003    1129.14  <-- SCF
      2  -1.54561717E+004  4.15188704E-001   2.40006315E-005    1146.40  <-- SCF
      3  -1.54561693E+004  4.08827664E-001  -1.91976807E-004    1163.51  <-- SCF
      4  -1.54561609E+004  4.12778954E-001  -6.39916417E-004    1179.21  <-- SCF
      5  -1.54561610E+004  4.13110385E-001   4.58809819E-006    1193.80  <-- SCF
      6  -1.54561610E+004  4.13698914E-001   2.23694132E-008    1204.45  <-- SCF
      7  -1.54561610E+004  4.14450625E-001   1.31117905E-007    1215.03  <-- SCF
------------------------------------------------------------------------ <-- SCF
 
Integrated Spin Density     =   -0.422626E-06 hbar/2                        
Integrated |Spin Density|   =    0.368616E-04 hbar/2                        
 
Final energy, E             =  -15456.05504695     eV
Final free energy (E-TS)    =  -15456.16099391     eV
(energies not corrected for finite basis set)
 
NB est. 0K energy (E-0.5TS)      =  -15456.10802043     eV
 
 
 ************************************** Forces **************************************
 *                                                                                  *
 *                           Cartesian components (eV/A)                            *
 * -------------------------------------------------------------------------------- *
 *                         x                    y                    z              *
 *                                                                                  *
 * Al              1     -0.01426             -0.01426             -0.17276         *
 * Al              2      0.01426             -0.01426             -0.17276         *
 * Al              3     -0.01426              0.01426             -0.17276         *
 * Al              4      0.01426              0.01426             -0.17275         *
 * Al              5     -0.00000             -0.00000              0.00324         *
 * Al              6     -0.00000             -0.00000              0.11338         *
 * Al              7     -0.00000             -0.00000              0.11337         *
 * Al              8     -0.00000             -0.00000             -0.03074         *
 * Al              9     -0.21968             -0.21968              0.32269         *
 * Al             10      0.21968             -0.21968              0.32268         *
 * Al             11     -0.21968              0.21968              0.32268         *
 * Al             12      0.21968              0.21968              0.32268         *
 * Au              1      0.00002              0.00002             -0.79897         *
 *                                                                                  *
 ************************************************************************************
 
 ***************** Stress Tensor *****************
 *                                               *
 *          Cartesian components (GPa)           *
 * --------------------------------------------- *
 *             x             y             z     *
 *                                               *
 *  x      1.792701     -0.000000      0.000001  *
 *  y     -0.000000      1.792695      0.000000  *
 *  z      0.000001      0.000000     -0.363560  *
 *                                               *
 *  Pressure:   -1.0739                          *
 *                                               *
 *************************************************
 
 *********** Constrained Stress Tensor ***********
 *                                               *
 *          Cartesian components (GPa)           *
 * --------------------------------------------- *
 *             x             y             z     *
 *                                               *
 *  x      1.792698      0.000000      0.000000  *
 *  y      0.000000      1.792698      0.000000  *
 *  z      0.000000      0.000000     -0.000000  *
 *                                               *
 *  Pressure:   -1.1951                          *
 *                                               *
 *************************************************
  
 +------------+-------------+-------------+-----------------+ <-- min LBFGS
 |    Step    |   lambda    |   F.delta'  |    enthalpy     | <-- min LBFGS
 +------------+-------------+-------------+-----------------+ <-- min LBFGS
 |  previous  |    0.000000 |    0.350698 |   -15456.144171 | <-- min LBFGS
 | trial step |    1.000000 |    0.336504 |   -15456.160985 | <-- min LBFGS
 +------------+-------------+-------------+-----------------+ <-- min LBFGS
  
 LBFGS: finished iteration     3 with enthalpy= -1.54561610E+004 eV
  
 +-----------+-----------------+-----------------+------------+-----+ <-- LBFGS
 | Parameter |      value      |    tolerance    |    units   | OK? | <-- LBFGS
 +-----------+-----------------+-----------------+------------+-----+ <-- LBFGS
 |  dE/ion   |   1.293418E-003 |   2.000000E-005 |         eV | No  | <-- LBFGS
 |  |F|max   |   7.989675E-001 |   5.000000E-002 |       eV/A | No  | <-- LBFGS
 |  |dR|max  |   2.013782E-003 |   1.000000E-003 |          A | No  | <-- LBFGS
 |   Smax    |   1.792698E+000 |   1.000000E-001 |        GPa | No  | <-- LBFGS
 +-----------+-----------------+-----------------+------------+-----+ <-- LBFGS
  

================================================================================
 Starting LBFGS iteration          4 ...
================================================================================
  
 +------------+-------------+-------------+-----------------+ <-- min LBFGS
 |    Step    |   lambda    |   F.delta'  |    enthalpy     | <-- min LBFGS
 +------------+-------------+-------------+-----------------+ <-- min LBFGS
 |  previous  |    0.000000 |    0.339351 |   -15456.160985 | <-- min LBFGS
 +------------+-------------+-------------+-----------------+ <-- min LBFGS
  

--------------------------------------------------------------------------------
 LBFGS: starting iteration         4 with trial guess (lambda=  1.000000)
--------------------------------------------------------------------------------
 
                           -------------------------------
                                      Unit Cell
                           -------------------------------
        Real Lattice(A)              Reciprocal Lattice(1/A)
     5.6981791     0.0000000    -0.0000000        1.102665461  -0.000000000   0.000000000
     0.0000000     5.6981791    -0.0000000       -0.000000000   1.102665461   0.000000000
    -0.0000000    -0.0000000    13.7500000        0.000000000   0.000000000   0.456958931
 
                       Lattice parameters(A)       Cell Angles
                    a =      5.698179          alpha =   90.000000
                    b =      5.698179          beta  =   90.000000
                    c =     13.750000          gamma =   90.000000
 
                Current cell volume =           446.452123 A**3
                            density =             1.166407 amu/A**3
                                    =             1.936865 g/cm^3
 
                           -------------------------------
                                     Cell Contents
                           -------------------------------
 
            xxxxxxxxxxxxxxxxxxxxxxxxxxxxxxxxxxxxxxxxxxxxxxxxxxxxxxxxxxxxxxxxx
            x  Element         Atom        Fractional coordinates of atoms  x
            x                 Number           u          v          w      x
            x---------------------------------------------------------------x
            x  Al                1        -0.000022  -0.000022   0.290792   x
            x  Al                2         0.500022  -0.000022   0.290792   x
            x  Al                3        -0.000022   0.500022   0.290792   x
            x  Al                4         0.500022   0.500022   0.290792   x
            x  Al                5         0.250000   0.250000   0.438181   x
            x  Al                6         0.750000   0.250000   0.438262   x
            x  Al                7         0.250000   0.750000   0.438262   x
            x  Al                8         0.750000   0.750000   0.438162   x
            x  Al                9        -0.000365  -0.000365   0.585685   x
            x  Al               10         0.500364  -0.000365   0.585685   x
            x  Al               11        -0.000365   0.500364   0.585685   x
            x  Al               12         0.500364   0.500364   0.585685   x
            x  Au                1         0.250000   0.250000   0.708499   x
            xxxxxxxxxxxxxxxxxxxxxxxxxxxxxxxxxxxxxxxxxxxxxxxxxxxxxxxxxxxxxxxxx
 
 
------------------------------------------------------------------------ <-- SCF
SCF loop      Energy           Fermi           Energy gain       Timer   <-- SCF
                               energy          per atom          (sec)   <-- SCF
------------------------------------------------------------------------ <-- SCF
Initial  -1.54560633E+004  0.00000000E+000                      1330.90  <-- SCF
      1  -1.54561860E+004  4.25988977E-001   9.43700750E-003    1350.87  <-- SCF
      2  -1.54561863E+004  4.25987011E-001   2.18261536E-005    1367.97  <-- SCF
      3  -1.54561839E+004  4.19741599E-001  -1.84691726E-004    1385.09  <-- SCF
      4  -1.54561764E+004  4.23466067E-001  -5.74913591E-004    1400.60  <-- SCF
      5  -1.54561765E+004  4.23706486E-001   4.20771560E-006    1415.05  <-- SCF
      6  -1.54561765E+004  4.24217319E-001   1.21999232E-007    1425.60  <-- SCF
      7  -1.54561765E+004  4.24847964E-001   1.67871021E-007    1436.16  <-- SCF
------------------------------------------------------------------------ <-- SCF
 
Integrated Spin Density     =   -0.848183E-07 hbar/2                        
Integrated |Spin Density|   =    0.300247E-04 hbar/2                        
 
Final energy, E             =  -15456.07111270     eV
Final free energy (E-TS)    =  -15456.17648651     eV
(energies not corrected for finite basis set)
 
NB est. 0K energy (E-0.5TS)      =  -15456.12379961     eV
 
 
 ************************************** Forces **************************************
 *                                                                                  *
 *                           Cartesian components (eV/A)                            *
 * -------------------------------------------------------------------------------- *
 *                         x                    y                    z              *
 *                                                                                  *
 * Al              1     -0.01505             -0.01505             -0.17748         *
 * Al              2      0.01505             -0.01505             -0.17748         *
 * Al              3     -0.01505              0.01505             -0.17748         *
 * Al              4      0.01505              0.01505             -0.17748         *
 * Al              5      0.00000              0.00000              0.00555         *
 * Al              6     -0.00000              0.00000              0.11343         *
 * Al              7      0.00000             -0.00000              0.11342         *
 * Al              8     -0.00000             -0.00000             -0.03234         *
 * Al              9     -0.22270             -0.22270              0.32165         *
 * Al             10      0.22270             -0.22270              0.32164         *
 * Al             11     -0.22270              0.22270              0.32164         *
 * Al             12      0.22270              0.22270              0.32164         *
 * Au              1      0.00001              0.00001             -0.77673         *
 *                                                                                  *
 ************************************************************************************
 
 ***************** Stress Tensor *****************
 *                                               *
 *          Cartesian components (GPa)           *
 * --------------------------------------------- *
 *             x             y             z     *
 *                                               *
 *  x      1.706528     -0.000004      0.000000  *
 *  y     -0.000004      1.706518     -0.000002  *
 *  z      0.000000     -0.000002     -0.406869  *
 *                                               *
 *  Pressure:   -1.0021                          *
 *                                               *
 *************************************************
 
 *********** Constrained Stress Tensor ***********
 *                                               *
 *          Cartesian components (GPa)           *
 * --------------------------------------------- *
 *             x             y             z     *
 *                                               *
 *  x      1.706523     -0.000000     -0.000000  *
 *  y     -0.000000      1.706523     -0.000000  *
 *  z     -0.000000     -0.000000      0.000000  *
 *                                               *
 *  Pressure:   -1.1377                          *
 *                                               *
 *************************************************
  
 +------------+-------------+-------------+-----------------+ <-- min LBFGS
 |    Step    |   lambda    |   F.delta'  |    enthalpy     | <-- min LBFGS
 +------------+-------------+-------------+-----------------+ <-- min LBFGS
 |  previous  |    0.000000 |    0.339351 |   -15456.160985 | <-- min LBFGS
 | trial step |    1.000000 |    0.326163 |   -15456.176494 | <-- min LBFGS
 +------------+-------------+-------------+-----------------+ <-- min LBFGS
  
 LBFGS: finished iteration     4 with enthalpy= -1.54561765E+004 eV
  
 +-----------+-----------------+-----------------+------------+-----+ <-- LBFGS
 | Parameter |      value      |    tolerance    |    units   | OK? | <-- LBFGS
 +-----------+-----------------+-----------------+------------+-----+ <-- LBFGS
 |  dE/ion   |   1.192998E-003 |   2.000000E-005 |         eV | No  | <-- LBFGS
 |  |F|max   |   7.767288E-001 |   5.000000E-002 |       eV/A | No  | <-- LBFGS
 |  |dR|max  |   1.949885E-003 |   1.000000E-003 |          A | No  | <-- LBFGS
 |   Smax    |   1.706523E+000 |   1.000000E-001 |        GPa | No  | <-- LBFGS
 +-----------+-----------------+-----------------+------------+-----+ <-- LBFGS
  

================================================================================
 Starting LBFGS iteration          5 ...
================================================================================

Writing analysis data to AlAu.castep_bin

Writing model to AlAu.check
  
 +------------+-------------+-------------+-----------------+ <-- min LBFGS
 |    Step    |   lambda    |   F.delta'  |    enthalpy     | <-- min LBFGS
 +------------+-------------+-------------+-----------------+ <-- min LBFGS
 |  previous  |    0.000000 |    0.329173 |   -15456.176494 | <-- min LBFGS
 +------------+-------------+-------------+-----------------+ <-- min LBFGS
  

--------------------------------------------------------------------------------
 LBFGS: starting iteration         5 with trial guess (lambda=  1.000000)
--------------------------------------------------------------------------------
 
                           -------------------------------
                                      Unit Cell
                           -------------------------------
        Real Lattice(A)              Reciprocal Lattice(1/A)
     5.6916964     0.0000000    -0.0000000        1.103921372  -0.000000000  -0.000000000
     0.0000000     5.6916964     0.0000000       -0.000000000   1.103921372  -0.000000000
     0.0000000     0.0000000    13.7500000        0.000000000  -0.000000000   0.456958931
 
                       Lattice parameters(A)       Cell Angles
                    a =      5.691696          alpha =   90.000000
                    b =      5.691696          beta  =   90.000000
                    c =     13.750000          gamma =   90.000000
 
                Current cell volume =           445.436860 A**3
                            density =             1.169066 amu/A**3
                                    =             1.941280 g/cm^3
 
                           -------------------------------
                                     Cell Contents
                           -------------------------------
 
            xxxxxxxxxxxxxxxxxxxxxxxxxxxxxxxxxxxxxxxxxxxxxxxxxxxxxxxxxxxxxxxxx
            x  Element         Atom        Fractional coordinates of atoms  x
            x                 Number           u          v          w      x
            x---------------------------------------------------------------x
            x  Al                1        -0.000028  -0.000028   0.290761   x
            x  Al                2         0.500028  -0.000028   0.290761   x
            x  Al                3        -0.000028   0.500028   0.290761   x
            x  Al                4         0.500028   0.500028   0.290761   x
            x  Al                5         0.250000   0.250000   0.438182   x
            x  Al                6         0.750000   0.250000   0.438282   x
            x  Al                7         0.250000   0.750000   0.438282   x
            x  Al                8         0.750000   0.750000   0.438156   x
            x  Al                9        -0.000459  -0.000459   0.585742   x
            x  Al               10         0.500459  -0.000459   0.585742   x
            x  Al               11        -0.000459   0.500459   0.585742   x
            x  Al               12         0.500459   0.500459   0.585742   x
            x  Au                1         0.250000   0.250000   0.708361   x
            xxxxxxxxxxxxxxxxxxxxxxxxxxxxxxxxxxxxxxxxxxxxxxxxxxxxxxxxxxxxxxxxx
 
 
------------------------------------------------------------------------ <-- SCF
SCF loop      Energy           Fermi           Energy gain       Timer   <-- SCF
                               energy          per atom          (sec)   <-- SCF
------------------------------------------------------------------------ <-- SCF
Initial  -1.54560788E+004  0.00000000E+000                      1555.34  <-- SCF
      1  -1.54561996E+004  4.35747952E-001   9.29605110E-003    1575.10  <-- SCF
      2  -1.54561999E+004  4.35746163E-001   1.99859708E-005    1591.70  <-- SCF
      3  -1.54561975E+004  4.29746031E-001  -1.79226685E-004    1608.44  <-- SCF
      4  -1.54561908E+004  4.33316683E-001  -5.22086972E-004    1623.55  <-- SCF
      5  -1.54561908E+004  4.33532337E-001   3.75874747E-006    1637.48  <-- SCF
      6  -1.54561908E+004  4.34021483E-001   1.52781983E-007    1647.86  <-- SCF
      7  -1.54561908E+004  4.34645092E-001   1.71625433E-007    1658.26  <-- SCF
------------------------------------------------------------------------ <-- SCF
 
Integrated Spin Density     =   -0.719458E-07 hbar/2                        
Integrated |Spin Density|   =    0.353229E-04 hbar/2                        
 
Final energy, E             =  -15456.08603724     eV
Final free energy (E-TS)    =  -15456.19080930     eV
(energies not corrected for finite basis set)
 
NB est. 0K energy (E-0.5TS)      =  -15456.13842327     eV
 
 
 ************************************** Forces **************************************
 *                                                                                  *
 *                           Cartesian components (eV/A)                            *
 * -------------------------------------------------------------------------------- *
 *                         x                    y                    z              *
 *                                                                                  *
 * Al              1     -0.01574             -0.01574             -0.18200         *
 * Al              2      0.01574             -0.01574             -0.18200         *
 * Al              3     -0.01574              0.01574             -0.18200         *
 * Al              4      0.01574              0.01574             -0.18200         *
 * Al              5     -0.00000              0.00000              0.00759         *
 * Al              6     -0.00000              0.00000              0.11323         *
 * Al              7     -0.00000             -0.00000              0.11323         *
 * Al              8     -0.00000             -0.00000             -0.03412         *
 * Al              9     -0.22537             -0.22537              0.32024         *
 * Al             10      0.22537             -0.22537              0.32023         *
 * Al             11     -0.22537              0.22537              0.32023         *
 * Al             12      0.22537              0.22537              0.32023         *
 * Au              1      0.00002              0.00000             -0.75288         *
 *                                                                                  *
 ************************************************************************************
 
 ***************** Stress Tensor *****************
 *                                               *
 *          Cartesian components (GPa)           *
 * --------------------------------------------- *
 *             x             y             z     *
 *                                               *
 *  x      1.620197      0.000007     -0.000001  *
 *  y      0.000007      1.620188     -0.000002  *
 *  z     -0.000001     -0.000002     -0.450947  *
 *                                               *
 *  Pressure:   -0.9298                          *
 *                                               *
 *************************************************
 
 *********** Constrained Stress Tensor ***********
 *                                               *
 *          Cartesian components (GPa)           *
 * --------------------------------------------- *
 *             x             y             z     *
 *                                               *
 *  x      1.620192      0.000000     -0.000000  *
 *  y      0.000000      1.620192      0.000000  *
 *  z     -0.000000      0.000000     -0.000000  *
 *                                               *
 *  Pressure:   -1.0801                          *
 *                                               *
 *************************************************
  
 +------------+-------------+-------------+-----------------+ <-- min LBFGS
 |    Step    |   lambda    |   F.delta'  |    enthalpy     | <-- min LBFGS
 +------------+-------------+-------------+-----------------+ <-- min LBFGS
 |  previous  |    0.000000 |    0.329173 |   -15456.176494 | <-- min LBFGS
 | trial step |    1.000000 |    0.315900 |   -15456.190816 | <-- min LBFGS
 +------------+-------------+-------------+-----------------+ <-- min LBFGS
  
 LBFGS: finished iteration     5 with enthalpy= -1.54561908E+004 eV
  
 +-----------+-----------------+-----------------+------------+-----+ <-- LBFGS
 | Parameter |      value      |    tolerance    |    units   | OK? | <-- LBFGS
 +-----------+-----------------+-----------------+------------+-----+ <-- LBFGS
 |  dE/ion   |   1.101654E-003 |   2.000000E-005 |         eV | No  | <-- LBFGS
 |  |F|max   |   7.528756E-001 |   5.000000E-002 |       eV/A | No  | <-- LBFGS
 |  |dR|max  |   1.895611E-003 |   1.000000E-003 |          A | No  | <-- LBFGS
 |   Smax    |   1.620192E+000 |   1.000000E-001 |        GPa | No  | <-- LBFGS
 +-----------+-----------------+-----------------+------------+-----+ <-- LBFGS
  

================================================================================
 Starting LBFGS iteration          6 ...
================================================================================
  
 +------------+-------------+-------------+-----------------+ <-- min LBFGS
 |    Step    |   lambda    |   F.delta'  |    enthalpy     | <-- min LBFGS
 +------------+-------------+-------------+-----------------+ <-- min LBFGS
 |  previous  |    0.000000 |    0.319083 |   -15456.190816 | <-- min LBFGS
 +------------+-------------+-------------+-----------------+ <-- min LBFGS
  

--------------------------------------------------------------------------------
 LBFGS: starting iteration         6 with trial guess (lambda=  1.000000)
--------------------------------------------------------------------------------
 
                           -------------------------------
                                      Unit Cell
                           -------------------------------
        Real Lattice(A)              Reciprocal Lattice(1/A)
     5.6855486    -0.0000000     0.0000000        1.105115038   0.000000000  -0.000000000
    -0.0000000     5.6855486     0.0000000        0.000000000   1.105115038  -0.000000000
     0.0000000     0.0000000    13.7500000       -0.000000000  -0.000000000   0.456958931
 
                       Lattice parameters(A)       Cell Angles
                    a =      5.685549          alpha =   90.000000
                    b =      5.685549          beta  =   90.000000
                    c =     13.750000          gamma =   90.000000
 
                Current cell volume =           444.475122 A**3
                            density =             1.171595 amu/A**3
                                    =             1.945480 g/cm^3
 
                           -------------------------------
                                     Cell Contents
                           -------------------------------
 
            xxxxxxxxxxxxxxxxxxxxxxxxxxxxxxxxxxxxxxxxxxxxxxxxxxxxxxxxxxxxxxxxx
            x  Element         Atom        Fractional coordinates of atoms  x
            x                 Number           u          v          w      x
            x---------------------------------------------------------------x
[...]
 *  y     -0.000000      0.352156     -0.000001  *
 *  z     -0.000000     -0.000001     -0.849314  *
 *                                               *
 *  Pressure:    0.0483                          *
 *                                               *
 *************************************************
 
 *********** Constrained Stress Tensor ***********
 *                                               *
 *          Cartesian components (GPa)           *
 * --------------------------------------------- *
 *             x             y             z     *
 *                                               *
 *  x      0.352156      0.000000      0.000000  *
 *  y      0.000000      0.352156     -0.000000  *
 *  z      0.000000     -0.000000     -0.000000  *
 *                                               *
 *  Pressure:   -0.2348                          *
 *                                               *
 *************************************************
  
 +------------+-------------+-------------+-----------------+ <-- min LBFGS
 |    Step    |   lambda    |   F.delta'  |    enthalpy     | <-- min LBFGS
 +------------+-------------+-------------+-----------------+ <-- min LBFGS
 |  previous  |    0.000000 |    0.234809 |   -15456.346518 | <-- min LBFGS
 | trial step |    1.000000 |    0.229971 |   -15456.349396 | <-- min LBFGS
 +------------+-------------+-------------+-----------------+ <-- min LBFGS
  
 LBFGS: finished iteration    30 with enthalpy= -1.54563494E+004 eV
  
 +-----------+-----------------+-----------------+------------+-----+ <-- LBFGS
 | Parameter |      value      |    tolerance    |    units   | OK? | <-- LBFGS
 +-----------+-----------------+-----------------+------------+-----+ <-- LBFGS
 |  dE/ion   |   2.213638E-004 |   2.000000E-005 |         eV | No  | <-- LBFGS
 |  |F|max   |   3.965049E-001 |   5.000000E-002 |       eV/A | No  | <-- LBFGS
 |  |dR|max  |   9.715139E-004 |   1.000000E-003 |          A | Yes | <-- LBFGS
 |   Smax    |   3.521560E-001 |   1.000000E-001 |        GPa | No  | <-- LBFGS
 +-----------+-----------------+-----------------+------------+-----+ <-- LBFGS
  
 LBFGS: WARNING - Geometry optimization failed to converge after         30 steps

================================================================================
 LBFGS: Final Configuration:
================================================================================
 
                           -------------------------------
                                      Unit Cell
                           -------------------------------
        Real Lattice(A)              Reciprocal Lattice(1/A)
     5.6084132     0.0000000    -0.0000000        1.120314270  -0.000000000  -0.000000000
     0.0000000     5.6084132    -0.0000000       -0.000000000   1.120314270  -0.000000000
     0.0000000     0.0000000    13.7500000        0.000000000   0.000000000   0.456958931
 
                       Lattice parameters(A)       Cell Angles
                    a =      5.608413          alpha =   90.000000
                    b =      5.608413          beta  =   90.000000
                    c =     13.750000          gamma =   90.000000
 
                Current cell volume =           432.496602 A**3
                            density =             1.204044 amu/A**3
                                    =             1.999362 g/cm^3
 
                           -------------------------------
                                     Cell Contents
                           -------------------------------
 
            xxxxxxxxxxxxxxxxxxxxxxxxxxxxxxxxxxxxxxxxxxxxxxxxxxxxxxxxxxxxxxxxx
            x  Element         Atom        Fractional coordinates of atoms  x
            x                 Number           u          v          w      x
            x---------------------------------------------------------------x
            x  Al                1        -0.000206  -0.000206   0.289861   x
            x  Al                2         0.500206  -0.000206   0.289861   x
            x  Al                3        -0.000206   0.500206   0.289861   x
            x  Al                4         0.500206   0.500206   0.289861   x
            x  Al                5         0.250000   0.250000   0.438296   x
            x  Al                6         0.750000   0.250000   0.438758   x
            x  Al                7         0.250000   0.750000   0.438758   x
            x  Al                8         0.750000   0.750000   0.437920   x
            x  Al                9        -0.002862  -0.002862   0.587039   x
            x  Al               10         0.502861  -0.002862   0.587039   x
            x  Al               11        -0.002862   0.502861   0.587039   x
            x  Al               12         0.502862   0.502861   0.587039   x
            x  Au                1         0.250000   0.250000   0.705937   x
            xxxxxxxxxxxxxxxxxxxxxxxxxxxxxxxxxxxxxxxxxxxxxxxxxxxxxxxxxxxxxxxxx
 
 
 LBFGS: Final Enthalpy     = -1.54563494E+004 eV
 LBFGS: Final <frequency>  unchanged from initial value
 LBFGS: Final bulk modulus unchanged from initial value
  
  **********************************************************
  *** There were at least     1 warnings during this run ***
  *** => please check the whole of this file carefully!  ***
  **********************************************************
 
 ************************************** Forces **************************************
 *                                                                                  *
 *                           Cartesian components (eV/A)                            *
 * -------------------------------------------------------------------------------- *
 *                         x                    y                    z              *
 *                                                                                  *
 * Al              1     -0.01420             -0.01420             -0.20143         *
 * Al              2      0.01420             -0.01420             -0.20143         *
 * Al              3     -0.01420              0.01420             -0.20143         *
 * Al              4      0.01420              0.01420             -0.20143         *
 * Al              5      0.00000              0.00000              0.03977         *
 * Al              6     -0.00000              0.00000              0.09871         *
 * Al              7      0.00000             -0.00000              0.09871         *
 * Al              8     -0.00000             -0.00000             -0.07127         *
 * Al              9     -0.21326             -0.21326              0.25741         *
 * Al             10      0.21326             -0.21326              0.25741         *
 * Al             11     -0.21326              0.21326              0.25741         *
 * Al             12      0.21326              0.21326              0.25741         *
 * Au              1     -0.00000             -0.00000             -0.38983         *
 *                                                                                  *
 ************************************************************************************
 
 ***************** Stress Tensor *****************
 *                                               *
 *          Cartesian components (GPa)           *
 * --------------------------------------------- *
 *             x             y             z     *
 *                                               *
 *  x      0.352156     -0.000000     -0.000000  *
 *  y     -0.000000      0.352156     -0.000001  *
 *  z     -0.000000     -0.000001     -0.849314  *
 *                                               *
 *  Pressure:    0.0483                          *
 *                                               *
 *************************************************
 
 Pseudo atomic calculation performed for Al 3s2 3p1
 
 Converged in 14 iterations to a total energy of -107.1300 eV
 
 Pseudo atomic calculation performed for Au 4f14 5s2 5p6 5d10 6s1
 
 Converged in 33 iterations to a total energy of -14122.6592 eV
Charge spilling parameter for spin component 1 = 1.10%
Charge spilling parameter for spin component 2 = 1.10%
 
                   Orbital Populations                  
  ---------------------------------------------------------------
     Ion    Atom   Orbital              Up        Down      Spin
  ---------------------------------------------------------------
     Al     1      S                    0.664     0.664    -0.000
     Al     1      Px                   0.291     0.291     0.000
     Al     1      Py                   0.291     0.291     0.000
     Al     1      Pz                   0.236     0.236     0.000
     Al     2      S                    0.664     0.664    -0.000
     Al     2      Px                   0.291     0.291     0.000
     Al     2      Py                   0.291     0.291    -0.000
     Al     2      Pz                   0.236     0.236     0.000
     Al     3      S                    0.664     0.664     0.000
     Al     3      Px                   0.291     0.291    -0.000
     Al     3      Py                   0.291     0.291     0.000
     Al     3      Pz                   0.236     0.236    -0.000
     Al     4      S                    0.664     0.664     0.000
     Al     4      Px                   0.291     0.291     0.000
     Al     4      Py                   0.291     0.291    -0.000
     Al     4      Pz                   0.236     0.236    -0.000
     Al     5      S                    0.554     0.554     0.000
     Al     5      Px                   0.326     0.326    -0.000
     Al     5      Py                   0.326     0.326    -0.000
     Al     5      Pz                   0.322     0.322    -0.000
     Al     6      S                    0.554     0.554     0.000
     Al     6      Px                   0.324     0.324    -0.000
     Al     6      Py                   0.323     0.323     0.000
     Al     6      Pz                   0.333     0.333     0.000
     Al     7      S                    0.554     0.554     0.000
     Al     7      Px                   0.323     0.323     0.000
     Al     7      Py                   0.324     0.324     0.000
     Al     7      Pz                   0.333     0.333     0.000
     Al     8      S                    0.556     0.556    -0.000
     Al     8      Px                   0.317     0.317    -0.000
     Al     8      Py                   0.318     0.318    -0.000
     Al     8      Pz                   0.319     0.319    -0.000
     Al     9      S                    0.630     0.630    -0.000
     Al     9      Px                   0.304     0.304     0.000
     Al     9      Py                   0.304     0.304     0.000
     Al     9      Pz                   0.286     0.286    -0.000
     Al    10      S                    0.630     0.630     0.000
     Al    10      Px                   0.304     0.304     0.000
     Al    10      Py                   0.304     0.304    -0.000
     Al    10      Pz                   0.286     0.286    -0.000
     Al    11      S                    0.630     0.630     0.000
     Al    11      Px                   0.304     0.304    -0.000
     Al    11      Py                   0.304     0.304     0.000
     Al    11      Pz                   0.286     0.286    -0.000
     Al    12      S                    0.630     0.630     0.000
     Al    12      Px                   0.304     0.304    -0.000
     Al    12      Py                   0.304     0.304    -0.000
     Al    12      Pz                   0.286     0.286     0.000
     Au     1      S                    1.000     1.000    -0.000
     Au     1      Fxxx                 1.000     1.000     0.000
     Au     1      Fyyy                 1.000     1.000    -0.000
     Au     1      Fzzz                 1.000     1.000     0.000
     Au     1      Fxyz                 1.000     1.000    -0.000
     Au     1      Fz(xx-yy)            1.000     1.000    -0.000
     Au     1      Fy(zz-xx)            1.000     1.000     0.000
     Au     1      Fx(yy-zz)            1.000     1.000    -0.000
     Au     1      Px                   1.000     1.000     0.000
     Au     1      Py                   1.000     1.000     0.000
     Au     1      Pz                   1.000     1.000     0.000
     Au     1      Dzz                  0.986     0.986    -0.000
     Au     1      Dzy                  0.966     0.966    -0.000
     Au     1      Dzx                  0.966     0.966    -0.000
     Au     1      Dxx-yy               0.979     0.979    -0.000
     Au     1      Dxy                  0.953     0.953     0.000
     Au     1      S                    0.517     0.517    -0.000
  ---------------------------------------------------------------
                           Total:      34.500    34.500    -0.000
  ---------------------------------------------------------------
 
     Atomic Populations (Mulliken)
     -----------------------------
Species          Ion Spin      s       p       d       f      Total   Charge(e)   Spin(hbar/2)
==============================================================================================
  Al              1   up:     0.664   0.818   0.000   0.000   1.483     0.035        0.000
                  1   dn:     0.664   0.818   0.000   0.000   1.483
  Al              2   up:     0.664   0.818   0.000   0.000   1.483     0.035       -0.000
                  2   dn:     0.664   0.818   0.000   0.000   1.483
  Al              3   up:     0.664   0.818   0.000   0.000   1.483     0.035        0.000
                  3   dn:     0.664   0.818   0.000   0.000   1.483
  Al              4   up:     0.664   0.818   0.000   0.000   1.483     0.035       -0.000
                  4   dn:     0.664   0.818   0.000   0.000   1.483
  Al              5   up:     0.554   0.975   0.000   0.000   1.529    -0.057       -0.000
                  5   dn:     0.554   0.975   0.000   0.000   1.529
  Al              6   up:     0.554   0.980   0.000   0.000   1.534    -0.069        0.000
                  6   dn:     0.554   0.980   0.000   0.000   1.534
  Al              7   up:     0.554   0.980   0.000   0.000   1.534    -0.069        0.000
                  7   dn:     0.554   0.980   0.000   0.000   1.534
  Al              8   up:     0.556   0.954   0.000   0.000   1.510    -0.020       -0.000
                  8   dn:     0.556   0.954   0.000   0.000   1.510
  Al              9   up:     0.630   0.894   0.000   0.000   1.524    -0.048        0.000
                  9   dn:     0.630   0.894   0.000   0.000   1.524
  Al             10   up:     0.630   0.894   0.000   0.000   1.524    -0.048        0.000
                 10   dn:     0.630   0.894   0.000   0.000   1.524
  Al             11   up:     0.630   0.894   0.000   0.000   1.524    -0.048        0.000
                 11   dn:     0.630   0.894   0.000   0.000   1.524
  Al             12   up:     0.630   0.894   0.000   0.000   1.524    -0.048        0.000
                 12   dn:     0.630   0.894   0.000   0.000   1.524
  Au              1   up:     1.516   3.000   4.850   7.000  16.366     0.268       -0.000
                  1   dn:     1.516   3.000   4.850   7.000  16.366
==============================================================================================
 
                 Bond                   Population        Spin       Length (A)
================================================================================
             Al 9  -- Au 1                   0.01         0.00          2.58748
             Al 11 -- Au 1                   0.01         0.00          2.58748
             Al 10 -- Au 1                   0.01        -0.00          2.58748
             Al 12 -- Au 1                   0.01        -0.00          2.58748
             Al 11 -- Al 12                  0.77        -0.00          2.77211
             Al 10 -- Al 12                  0.77        -0.00          2.77211
             Al 9  -- Al 10                  0.77         0.00          2.77211
             Al 9  -- Al 11                  0.77        -0.00          2.77211
             Al 1  -- Al 2                   0.89         0.00          2.80189
             Al 3  -- Al 4                   0.89        -0.00          2.80189
             Al 1  -- Al 3                   0.89         0.00          2.80189
             Al 2  -- Al 4                   0.89         0.00          2.80189
             Al 5  -- Al 7                   0.69        -0.00          2.80421
             Al 5  -- Al 6                   0.69        -0.00          2.80421
             Al 6  -- Al 8                   0.67        -0.00          2.80423
             Al 7  -- Al 8                   0.67         0.00          2.80423
             Al 8  -- Al 9                  -0.07        -0.00          2.83662
             Al 8  -- Al 11                 -0.07         0.00          2.83662
             Al 8  -- Al 10                 -0.07        -0.00          2.83662
             Al 8  -- Al 12                 -0.07         0.00          2.83662
             Al 1  -- Al 8                  -0.07         0.00          2.84074
             Al 2  -- Al 8                  -0.07        -0.00          2.84074
             Al 3  -- Al 8                  -0.07         0.00          2.84074
             Al 4  -- Al 8                  -0.07        -0.00          2.84074
             Al 6  -- Al 11                 -0.01        -0.00          2.84416
             Al 7  -- Al 10                 -0.01        -0.00          2.84416
             Al 6  -- Al 9                  -0.01         0.00          2.84416
             Al 7  -- Al 9                  -0.01        -0.00          2.84416
             Al 6  -- Al 12                 -0.01        -0.00          2.84416
             Al 7  -- Al 12                 -0.01        -0.00          2.84416
             Al 6  -- Al 10                 -0.01        -0.00          2.84416
             Al 7  -- Al 11                 -0.01        -0.00          2.84416
             Al 4  -- Al 5                  -0.07        -0.00          2.84673
             Al 2  -- Al 5                  -0.07         0.00          2.84673
             Al 3  -- Al 5                  -0.07        -0.00          2.84673
             Al 1  -- Al 5                  -0.07         0.00          2.84673
             Al 2  -- Al 7                  -0.07        -0.00          2.85015
             Al 3  -- Al 6                  -0.07        -0.00          2.85015
             Al 1  -- Al 7                  -0.07        -0.00          2.85015
             Al 1  -- Al 6                  -0.07        -0.00          2.85015
             Al 4  -- Al 7                  -0.07         0.00          2.85015
             Al 4  -- Al 6                  -0.07         0.00          2.85015
             Al 3  -- Al 7                  -0.07        -0.00          2.85015
             Al 2  -- Al 6                  -0.07         0.00          2.85015
             Al 5  -- Al 12                  0.01         0.00          2.86447
             Al 5  -- Al 11                  0.01        -0.00          2.86447
             Al 5  -- Al 10                  0.01         0.00          2.86447
             Al 5  -- Al 9                   0.01        -0.00          2.86447
================================================================================
 

Writing analysis data to AlAu.castep_bin

Writing model to AlAu.check
 
 A BibTeX formatted list of references used in this run has been written to 
 AlAu.bib
 
Initialisation time =     25.07 s
Calculation time    =   7229.99 s
Finalisation time   =      3.57 s
Total time          =   7258.62 s
Peak Memory Use     = 3109972 kB
  
Overall parallel efficiency rating: Very good (87%)                             
  
Data was distributed by:-
k-point (16-way); efficiency rating: Very good (87%)                            
