 +-------------------------------------------------+
 |                                                 |
 |      CCC   AA    SSS  TTTTT  EEEEE  PPPP        |
 |     C     A  A  S       T    E      P   P       |
 |     C     AAAA   SS     T    EEE    PPPP        |
 |     C     A  A     S    T    E      P           |
 |      CCC  A  A  SSS     T    EEEEE  P           |
 |                                                 |
 +-------------------------------------------------+
 |                                                 |
 | Welcome to Academic Release CASTEP version 22.1 |          
 | Ab Initio Total Energy Program                  |
 |                                                 |
 | Authors:                                        |
 | M. Segall, M. Probert, C. Pickard, P. Hasnip,   |
 | S. Clark, K. Refson, J. R. Yates, M. Payne      |
 |                                                 |
 | Contributors:                                   |
 | P. Lindan, P. Haynes, J. White, V. Milman,      |
 | N. Govind, M. Gibson, P. Tulip, V. Cocula,      |
 | B. Montanari, D. Quigley, M. Glover,            |
 | L. Bernasconi, A. Perlov, M. Plummer,           |
 | E. McNellis, J. Meyer, J. Gale, D. Jochym       |
 | J. Aarons, B. Walker, R. Gillen, D. Jones       |
 | T. Green, I. J. Bush, C. J. Armstrong,          |
 | E. J. Higgins, E. L. Brown, M. S. McFly,        |
 | J. Wilkins, B-C. Shih, P. J. P. Byrne,          |
 | R. J. Maurer, J. C. Womack, J. Dziedzic,        |
 | A. Bartok-Partay, L. LeBlanc, T. K. Stenczel,   |
 | J. Kermode, S. Sturniolo                        |
 |                                                 |
 | Copyright (c) 2000 - 2021                       |
 |                                                 |
 |     Distributed under license from Cambridge    |
 |     Enterprise for academic use only.           |
 |                                                 |
 | Please cite                                     |
 |                                                 |
 |     "First principles methods using CASTEP"     |
 |                                                 |
 |         Zeitschrift fuer Kristallographie       |
 |           220(5-6) pp. 567-570 (2005)           |
 |                                                 |
 | S. J. Clark, M. D. Segall, C. J. Pickard,       |
 | P. J. Hasnip, M. J. Probert, K. Refson,         |
 | M. C. Payne                                     |
 |                                                 |
 |       in all publications arising from          |
 |              your use of CASTEP                 |
 |                                                 |
 +-------------------------------------------------+
 |                                                 |
 |              http://www.castep.org              |
 |                                                 |
 +-------------------------------------------------+
 
 
 
 Compiled for linux_x86_64_ifort on Wed, 01 Sep 2021 11:26:29 +0100
 from code version 555e1d8+  neb-add-checkfile  Tue Aug 24 18:07:49 2021 +0100
 Compiler: Intel Fortran 18.0.3.222; Optimisation: fast
 MATHLIBS: Intel MKL(2018.0.3) (LAPACK version 3.7.0)
 FFT Lib : default
 Fundamental constants values: CODATA 2014
 
 Run started: Wed, 01 Sep 2021 11:30:39 +0100
 
 Atomic calculation performed for Cu: 1s2 2s2 2p6 3s2 3p6 3d10 4s1
 
 Converged in 145 iterations to an ae energy of -45030.712 eV
 
   ============================================================                
   | Pseudopotential Report - Date of generation  1-09-2021   |                
   ------------------------------------------------------------                
   | Element: Cu Ionic charge: 11.00 Level of theory: PBE     |                
   | Atomic Solver: Koelling-Harmon                           |                
   |                                                          |                
   |               Reference Electronic Structure             |                
   |         Orbital         Occupation         Energy        |                
   |            3d             10.000           -0.185        |                
   |            4s              1.000           -0.169        |                
   |                                                          |                
   |                 Pseudopotential Definition               |                
   |        Beta     l      e      Rc     scheme   norm       |                
   |          1      0   -0.169   1.996     qc      0         |                
   |          2      0    0.250   1.996     qc      0         |                
   |          3      1    0.000   1.996     qc      0         |                
   |          4      1    0.250   1.996     qc      0         |                
   |          5      2   -0.185   1.996     qc      0         |                
   |          6      2    0.250   1.996     qc      0         |                
   |         loc     3    0.000   2.206     pn      0         |                
   |                                                          |                
   | Augmentation charge Rinner = 0.999                       |                
   | Partial core correction Rc = 0.999                       |                
   ------------------------------------------------------------                
   | "3|2.2|2.0|1.0|10|12|13|40:41:32(qc=6)"                  |                
   ------------------------------------------------------------                
   |      Author: Chris J. Pickard, Cambridge University      |                
   ============================================================                
 
 Pseudo atomic calculation performed for Cu 3d10 4s1
 
 Converged in 49 iterations to a total energy of -1676.7356 eV
 Calculation parallelised over 32 processes.
 Data is distributed by G-vector(8-way) and k-point(4-way)

 ************************************ Title ************************************
 

 ***************************** General Parameters ******************************
  
 output verbosity                               : normal  (1)
 write checkpoint data to                       : CuBulk.check
 type of calculation                            : geometry optimization
 stress calculation                             : on
 density difference calculation                 : off
 electron localisation func (ELF) calculation   : off
 Hirshfeld analysis                             : off
 polarisation (Berry phase) analysis            : off
 molecular orbital projected DOS                : off
 deltaSCF calculation                           : off
 unlimited duration calculation
 timing information                             : on
 memory usage estimate                          : on
 write extra output files                       : on
 write final potential to formatted file        : off
 write final density to formatted file          : off
 write structure in CELL formatted file         : on
 write BibTeX reference list                    : on
 write OTFG pseudopotential files               : on
 write electrostatic potential file             : on
 write bands file                               : on
 checkpoint writing                             : both castep_bin and check files
  
 output         length unit                     : A
 output           mass unit                     : amu
 output           time unit                     : ps
 output         charge unit                     : e
 output           spin unit                     : hbar/2
 output         energy unit                     : eV
 output          force unit                     : eV/A
 output       velocity unit                     : A/ps
 output       pressure unit                     : GPa
 output     inv_length unit                     : 1/A
 output      frequency unit                     : cm-1
 output force constant unit                     : eV/A**2
 output         volume unit                     : A**3
 output   IR intensity unit                     : (D/A)**2/amu
 output         dipole unit                     : D
 output         efield unit                     : eV/A/e
 output        entropy unit                     : J/mol/K
 output    efield chi2 unit                     : pm/V
  
 wavefunctions paging                           : none
 random number generator seed                   : randomised (113041426)
 data distribution                              : optimal for this architecture
 optimization strategy                          : balance speed and memory

 *********************** Exchange-Correlation Parameters ***********************
  
 using functional                               : Perdew Burke Ernzerhof
 relativistic treatment                         : Koelling-Harmon
 DFT+D: Semi-empirical dispersion correction    : off

 ************************* Pseudopotential Parameters **************************
  
 pseudopotential representation                 : reciprocal space
 <beta|phi> representation                      : reciprocal space
 spin-orbit coupling                            : off

 **************************** Basis Set Parameters *****************************
  
 plane wave basis set cut-off                   :   400.0000   eV
 size of standard grid                          :     1.7500
 size of   fine   gmax                          :    17.9311   1/A
 finite basis set correction                    : automatic
 number of sample energies                      :          3
           sample  spacing                      :     5.0000   eV

 **************************** Electronic Parameters ****************************
  
 number of  electrons                           :  352.0    
 net charge of system                           :  0.000    
 treating system as non-spin-polarized
 number of bands                                :        211

 ********************* Electronic Minimization Parameters **********************
  
 Method: Treating system as metallic with density mixing treatment of electrons,
         and number of  SD  steps               :          1
         and number of  CG  steps               :          4
  
 total energy / atom convergence tol.           : 0.1000E-04   eV
 eigen-energy convergence tolerance             : 0.1000E-05   eV
 max force / atom convergence tol.              : ignored
 convergence tolerance window                   :          3   cycles
 max. number of SCF cycles                      :        100
 number of fixed-spin iterations                :         10
 smearing scheme                                : Gaussian
 smearing width                                 : 0.2000       eV
 Fermi energy convergence tolerance             : 0.2721E-13   eV
 periodic dipole correction                     : NONE

 ************************** Density Mixing Parameters **************************
  
 density-mixing scheme                          : Broyden
 max. length of mixing history                  :         20
 charge density mixing amplitude                : 0.8000    
 cut-off energy for mixing                      :  400.0       eV

 *********************** Population Analysis Parameters ************************
  
 Population analysis with cutoff                :  3.000       A
 Population analysis output                     : summary and pdos components

 ********************** Geometry Optimization Parameters ***********************
  
 optimization method                            : LBFGS
 max. no. of LBFGS updates                      : unbounded
 variable cell method                           : fixed basis quality
 max. number of steps                           :         30
 estimated bulk modulus                         :  500.0       GPa
 estimated <frequency>                          :  1668.       cm-1
 geom line minimiser                            : on
 with line minimiser tolerance                  :     0.4000
 total energy convergence tolerance             : 0.2000E-04   eV/atom
        max ionic |force| tolerance             : 0.5000E-01   eV/A
 max ionic |displacement| tolerance             : 0.1000E-02   A
   max |stress component| tolerance             : 0.1000       GPa
 convergence tolerance window                   :          2   steps
 backup results every                           :          5   steps
 write geom trajectory file                     : on

 *******************************************************************************
  
 
                           -------------------------------
                                      Unit Cell
                           -------------------------------
        Real Lattice(A)                      Reciprocal Lattice(1/A)
     7.2300000     0.0000000     0.0000000        0.869043611   0.000000000   0.000000000
     0.0000000     7.2300000     0.0000000        0.000000000   0.869043611   0.000000000
     0.0000000     0.0000000     7.2300000        0.000000000   0.000000000   0.869043611
 
                       Lattice parameters(A)       Cell Angles
                    a =      7.230000          alpha =   90.000000
                    b =      7.230000          beta  =   90.000000
                    c =      7.230000          gamma =   90.000000
 
                       Current cell volume =           377.933067       A**3
                                   density =             5.380508   AMU/A**3
                                           =             8.934544     g/cm^3
 
                           -------------------------------
                                     Cell Contents
                           -------------------------------
                         Total number of ions in cell =   32
                      Total number of species in cell =    1
                        Max number of any one species =   32
 
            xxxxxxxxxxxxxxxxxxxxxxxxxxxxxxxxxxxxxxxxxxxxxxxxxxxxxxxxxxxx
            x  Element    Atom        Fractional coordinates of atoms  x
            x            Number           u          v          w      x
            x----------------------------------------------------------x
            x  Cu           1         1.000000   0.000000   0.000000   x 
            x  Cu           2         1.000000   0.250000   0.250000   x 
            x  Cu           3         0.250000   0.000000   0.250000   x 
            x  Cu           4         0.250000   0.250000   0.000000   x 
            x  Cu           5         0.000000   0.000000   0.500000   x 
            x  Cu           6         0.000000   0.250000   0.750000   x 
            x  Cu           7         0.250000   0.000000   0.750000   x 
            x  Cu           8         0.250000   0.250000   0.500000   x 
            x  Cu           9         1.000000   0.500000   0.000000   x 
            x  Cu          10         0.000000   0.750000   0.250000   x 
            x  Cu          11         0.250000   0.500000   0.250000   x 
            x  Cu          12         0.250000   0.750000   0.000000   x 
            x  Cu          13         0.000000   0.500000   0.500000   x 
            x  Cu          14         0.000000   0.750000   0.750000   x 
            x  Cu          15         0.250000   0.500000   0.750000   x 
            x  Cu          16         0.250000   0.750000   0.500000   x 
            x  Cu          17         0.500000   0.000000   0.000000   x 
            x  Cu          18         0.500000   0.250000   0.250000   x 
            x  Cu          19         0.750000   0.000000   0.250000   x 
            x  Cu          20         0.750000   0.250000   0.000000   x 
            x  Cu          21         0.500000   0.000000   0.500000   x 
            x  Cu          22         0.500000   0.250000   0.750000   x 
            x  Cu          23         0.750000   0.000000   0.750000   x 
            x  Cu          24         0.750000   0.250000   0.500000   x 
            x  Cu          25         0.500000   0.500000   0.000000   x 
            x  Cu          26         0.500000   0.750000   0.250000   x 
            x  Cu          27         0.750000   0.500000   0.250000   x 
            x  Cu          28         0.750000   0.750000   0.000000   x 
            x  Cu          29         0.500000   0.500000   0.500000   x 
            x  Cu          30         0.500000   0.750000   0.750000   x 
            x  Cu          31         0.750000   0.500000   0.750000   x 
            x  Cu          32         0.750000   0.750000   0.500000   x 
            xxxxxxxxxxxxxxxxxxxxxxxxxxxxxxxxxxxxxxxxxxxxxxxxxxxxxxxxxxxx
 
 
                         No user defined ionic velocities
 
                           -------------------------------
                                   Details of Species
                           -------------------------------
 
                               Mass of species in AMU
                                    Cu   63.5460000
 
                          Electric Quadrupole Moment (Barn)
                                    Cu   -0.2200000 Isotope 63
 
                          Files used for pseudopotentials:
                                    Cu 3|2.2|2.0|1.0|10|12|13|40:41:32(qc=6)
 
                           -------------------------------
                              k-Points For BZ Sampling
                           -------------------------------
                       MP grid size for SCF calculation is  2  2  2
                            with an offset of   0.000  0.000  0.000
                       Number of kpoints used =             4
 
                           -------------------------------
                               Symmetry and Constraints
                           -------------------------------
 
                      Cell is a supercell containing 32 primitive cells
                      Maximum deviation from symmetry =  0.00000         ANG
 
                      Number of symmetry operations   =           1
                      Number of ionic constraints     =           3
                      Point group of crystal =     1: C1, 1, 1
                      Space group of crystal =   225: Fm-3m, -F 4 2 3
 
             Set iprint > 1 for details on symmetry rotations/translations
 
                         Centre of mass is constrained
             Set iprint > 1 for details of linear ionic constraints
 
                         Number of cell constraints= 5
                         Cell constraints are:  1 1 1 0 0 0
 
                         External pressure/stress (GPa)
                          0.00000   0.00000   0.00000
                                    0.00000   0.00000
                                              0.00000
  
+---------------- MEMORY AND SCRATCH DISK ESTIMATES PER PROCESS --------------+
|                                                     Memory          Disk    |
| Baseline code, static data and system overhead      524.0 MB         0.0 MB |
| BLAS internal memory storage                          0.0 MB         0.0 MB |
| Model and support data                              102.6 MB        29.8 MB |
| Electronic energy minimisation requirements          20.1 MB         0.0 MB |
| Force calculation requirements                        2.3 MB         0.0 MB |
| Stress calculation requirements                       2.4 MB         0.0 MB |
|                                               ----------------------------- |
| Approx. total storage required per process          646.7 MB        29.8 MB |
|                                                                             |
| Requirements will fluctuate during execution and may exceed these estimates |
+-----------------------------------------------------------------------------+
Calculating finite basis set correction with  3 cut-off energies.
Calculating total energy with cut-off of  390.000 eV.
Calculating approximate eigenstates for fixed initial Hamiltonian
Cut-off for approx. calculation is  212.187 eV
Resetting cut-off to  389.425 eV
------------------------------------------------------------------------ <-- SCF
SCF loop      Energy           Fermi           Energy gain       Timer   <-- SCF
                               energy          per atom          (sec)   <-- SCF
------------------------------------------------------------------------ <-- SCF
Initial  -5.51136316E+004  0.00000000E+000                        13.65  <-- SCF
      1  -5.37603383E+004  3.64663027E+000  -4.22904146E+001      15.58  <-- SCF
      2  -5.38004113E+004  3.71093725E+000   1.25228008E+000      17.20  <-- SCF
      3  -5.38487713E+004  7.00736434E+000   1.51124838E+000      18.79  <-- SCF
      4  -5.37839323E+004  4.46670145E+000  -2.02621808E+000      20.71  <-- SCF
      5  -5.37918702E+004  4.67610219E+000   2.48060957E-001      22.65  <-- SCF
      6  -5.37866784E+004  4.55888178E+000  -1.62243752E-001      24.22  <-- SCF
      7  -5.37880650E+004  4.60089455E+000   4.33298043E-002      25.82  <-- SCF
      8  -5.37867460E+004  4.54959504E+000  -4.12167274E-002      27.38  <-- SCF
      9  -5.37864593E+004  4.54749385E+000  -8.96243453E-003      28.95  <-- SCF
     10  -5.37872899E+004  4.59051271E+000   2.59592727E-002      30.53  <-- SCF
     11  -5.37863869E+004  4.55791207E+000  -2.82204278E-002      32.11  <-- SCF
     12  -5.37870253E+004  4.58820920E+000   1.99512340E-002      33.68  <-- SCF
     13  -5.37863947E+004  4.56527072E+000  -1.97062420E-002      35.24  <-- SCF
     14  -5.37867026E+004  4.57644307E+000   9.62099173E-003      36.80  <-- SCF
     15  -5.37863660E+004  4.56350193E+000  -1.05203942E-002      38.35  <-- SCF
     16  -5.37864122E+004  4.56303410E+000   1.44412794E-003      39.94  <-- SCF
     17  -5.37863781E+004  4.56133484E+000  -1.06353750E-003      41.49  <-- SCF
     18  -5.37863686E+004  4.55995065E+000  -2.99454625E-004      43.07  <-- SCF
     19  -5.37863861E+004  4.56037649E+000   5.46940716E-004      44.62  <-- SCF
     20  -5.37863671E+004  4.55954528E+000  -5.92186248E-004      46.17  <-- SCF
     21  -5.37863692E+004  4.55917386E+000   6.46133632E-005      47.76  <-- SCF
     22  -5.37863676E+004  4.55909275E+000  -4.79259343E-005      49.31  <-- SCF
     23  -5.37863681E+004  4.55916223E+000   1.55518503E-005      50.86  <-- SCF
     24  -5.37863671E+004  4.55942404E+000  -3.31097302E-005      52.02  <-- SCF
     25  -5.37863708E+004  4.55900419E+000   1.17946506E-004      53.59  <-- SCF
     26  -5.37863670E+004  4.55890776E+000  -1.20428880E-004      54.96  <-- SCF
     27  -5.37863668E+004  4.56000610E+000  -4.98486260E-006      56.47  <-- SCF
     28  -5.37863676E+004  4.55862560E+000   2.53539802E-005      57.98  <-- SCF
     29  -5.37863666E+004  4.55903647E+000  -3.31725192E-005      59.48  <-- SCF
     30  -5.37863665E+004  4.55979664E+000  -3.13004757E-006      60.52  <-- SCF
     31  -5.37863667E+004  4.55858296E+000   6.31322789E-006      61.57  <-- SCF
------------------------------------------------------------------------ <-- SCF
 
Final energy, E             =  -53785.69533157     eV
Final free energy (E-TS)    =  -53786.36668726     eV
(energies not corrected for finite basis set)
 
NB est. 0K energy (E-0.5TS)      =  -53786.03100942     eV
 
Calculating total energy with cut-off of  395.000 eV.
------------------------------------------------------------------------ <-- SCF
SCF loop      Energy           Fermi           Energy gain       Timer   <-- SCF
                               energy          per atom          (sec)   <-- SCF
------------------------------------------------------------------------ <-- SCF
Initial  -5.37856931E+004  0.00000000E+000                        62.22  <-- SCF
      1  -5.37867385E+004  4.56040222E+000   3.26709759E-002      63.97  <-- SCF
      2  -5.37867386E+004  4.56040222E+000   3.02816952E-006      65.19  <-- SCF
      3  -5.37869325E+004  4.56715682E+000   6.05849391E-003      66.79  <-- SCF
      4  -5.37867130E+004  4.55776394E+000  -6.86095266E-003      68.37  <-- SCF
      5  -5.37867499E+004  4.56355894E+000   1.15509148E-003      69.94  <-- SCF
      6  -5.37867218E+004  4.56025037E+000  -8.78247320E-004      71.50  <-- SCF
      7  -5.37867248E+004  4.55731328E+000   9.25870447E-005      73.05  <-- SCF
      8  -5.37867232E+004  4.55881912E+000  -4.77972102E-005      74.54  <-- SCF
      9  -5.37867234E+004  4.56060530E+000   4.53146166E-006      75.59  <-- SCF
     10  -5.37867233E+004  4.55885012E+000  -2.46476893E-006      76.63  <-- SCF
------------------------------------------------------------------------ <-- SCF
 
Final energy, E             =  -53786.05116628     eV
Final free energy (E-TS)    =  -53786.72330921     eV
(energies not corrected for finite basis set)
 
NB est. 0K energy (E-0.5TS)      =  -53786.38723775     eV
 
Calculating total energy with cut-off of  400.000 eV.
------------------------------------------------------------------------ <-- SCF
SCF loop      Energy           Fermi           Energy gain       Timer   <-- SCF
                               energy          per atom          (sec)   <-- SCF
------------------------------------------------------------------------ <-- SCF
Initial  -5.37860509E+004  0.00000000E+000                        77.26  <-- SCF
      1  -5.37869912E+004  4.56045721E+000   2.93853289E-002      79.00  <-- SCF
      2  -5.37869912E+004  4.56045720E+000   9.14001602E-007      80.06  <-- SCF
      3  -5.37870177E+004  4.56266563E+000   8.26781186E-004      81.69  <-- SCF
      4  -5.37869878E+004  4.56056357E+000  -9.34397217E-004      83.26  <-- SCF
      5  -5.37869916E+004  4.55987437E+000   1.18984593E-004      84.86  <-- SCF
      6  -5.37869893E+004  4.56010619E+000  -7.32434778E-005      86.40  <-- SCF
      7  -5.37869895E+004  4.56057342E+000   7.02927308E-006      87.46  <-- SCF
      8  -5.37869894E+004  4.56028389E+000  -3.12528288E-006      88.52  <-- SCF
------------------------------------------------------------------------ <-- SCF
 
Final energy, E             =  -53786.31539317     eV
Final free energy (E-TS)    =  -53786.98938639     eV
(energies not corrected for finite basis set)
 
NB est. 0K energy (E-0.5TS)      =  -53786.65238978     eV
 
 For future reference: finite basis dEtot/dlog(Ecut) =     -22.040790eV
 Total energy corrected for finite basis set =  -53786.956159 eV
 
+---------------- MEMORY AND SCRATCH DISK ESTIMATES PER PROCESS --------------+
|                                                     Memory          Disk    |
| Model and support data                              113.0 MB        29.8 MB |
| Electronic energy minimisation requirements          20.1 MB         0.0 MB |
| Geometry minimisation requirements                   23.4 MB         0.0 MB |
|                                               ----------------------------- |
| Approx. total storage required per process          156.6 MB        29.8 MB |
|                                                                             |
| Requirements will fluctuate during execution and may exceed these estimates |
+-----------------------------------------------------------------------------+
 
 
 ************************************** Forces **************************************
 *                                                                                  *
 *                           Cartesian components (eV/A)                            *
 * -------------------------------------------------------------------------------- *
 *                         x                    y                    z              *
 *                                                                                  *
 * Cu              1      0.00009              0.00002             -0.00011         *
 * Cu              2      0.00013              0.00191              0.00164         *
 * Cu              3      0.00164              0.00007              0.00172         *
 * Cu              4      0.00167              0.00166             -0.00004         *
 * Cu              5      0.00008             -0.00003              0.00013         *
 * Cu              6      0.00007              0.00159             -0.00164         *
 * Cu              7      0.00185              0.00015             -0.00170         *
 * Cu              8      0.00180              0.00173              0.00004         *
 * Cu              9      0.00002             -0.00004              0.00017         *
 * Cu             10      0.00005             -0.00189              0.00171         *
 * Cu             11      0.00161             -0.00007              0.00180         *
 * Cu             12      0.00154             -0.00168              0.00002         *
 * Cu             13      0.00001              0.00002             -0.00016         *
 * Cu             14      0.00001             -0.00159             -0.00174         *
 * Cu             15      0.00172             -0.00009             -0.00179         *
 * Cu             16      0.00170             -0.00176             -0.00002         *
 * Cu             17     -0.00008              0.00013             -0.00025         *
 * Cu             18     -0.00013              0.00191              0.00178         *
 * Cu             19     -0.00163              0.00002              0.00171         *
 * Cu             20     -0.00169              0.00173             -0.00010         *
 * Cu             21     -0.00007              0.00005              0.00024         *
 * Cu             22     -0.00005              0.00157             -0.00178         *
 * Cu             23     -0.00183              0.00005             -0.00170         *
 * Cu             24     -0.00180              0.00180              0.00011         *
 * Cu             25     -0.00003             -0.00013              0.00005         *
 * Cu             26     -0.00008             -0.00190              0.00185         *
 * Cu             27     -0.00159             -0.00001              0.00179         *
 * Cu             28     -0.00158             -0.00173             -0.00003         *
 * Cu             29      0.00000             -0.00004             -0.00009         *
 * Cu             30      0.00001             -0.00157             -0.00184         *
 * Cu             31     -0.00177             -0.00007             -0.00179         *
 * Cu             32     -0.00167             -0.00181              0.00001         *
 *                                                                                  *
 ************************************************************************************
 
 ***************** Stress Tensor *****************
 *                                               *
 *          Cartesian components (GPa)           *
 * --------------------------------------------- *
 *             x             y             z     *
 *                                               *
 *  x     -4.154682     -0.000004     -0.000015  *
 *  y     -0.000004     -4.154696     -0.000051  *
 *  z     -0.000015     -0.000051     -4.154735  *
 *                                               *
 *  Pressure:    4.1547                          *
 *                                               *
 *************************************************
 
 *********** Constrained Stress Tensor ***********
 *                                               *
 *          Cartesian components (GPa)           *
 * --------------------------------------------- *
 *             x             y             z     *
 *                                               *
 *  x     -4.154705     -0.000000     -0.000000  *
 *  y     -0.000000     -4.154705     -0.000000  *
 *  z     -0.000000     -0.000000     -4.154705  *
 *                                               *
 *  Pressure:    4.1547                          *
 *                                               *
 *************************************************
 LBFGS: finished iteration     0 with enthalpy= -5.37869562E+004 eV
  
 +-----------+-----------------+-----------------+------------+-----+ <-- LBFGS
 | Parameter |      value      |    tolerance    |    units   | OK? | <-- LBFGS
 +-----------+-----------------+-----------------+------------+-----+ <-- LBFGS
 |  dE/ion   |   0.000000E+000 |   2.000000E-005 |         eV | No  | <-- LBFGS
 |  |F|max   |   2.647427E-003 |   5.000000E-002 |       eV/A | Yes | <-- LBFGS
 |  |dR|max  |   0.000000E+000 |   1.000000E-003 |          A | No  | <-- LBFGS
 |   Smax    |   4.154705E+000 |   1.000000E-001 |        GPa | No  | <-- LBFGS
 +-----------+-----------------+-----------------+------------+-----+ <-- LBFGS
  

================================================================================
 Starting LBFGS iteration          1 ...
================================================================================
  
 +------------+-------------+-------------+-----------------+ <-- min LBFGS
 |    Step    |   lambda    |   F.delta'  |    enthalpy     | <-- min LBFGS
 +------------+-------------+-------------+-----------------+ <-- min LBFGS
 |  previous  |    0.000000 |    0.623815 |   -53786.956159 | <-- min LBFGS
 +------------+-------------+-------------+-----------------+ <-- min LBFGS
  

--------------------------------------------------------------------------------
 LBFGS: starting iteration         1 with trial guess (lambda=  1.000000)
--------------------------------------------------------------------------------
 
+---------------- MEMORY AND SCRATCH DISK ESTIMATES PER PROCESS --------------+
|                                                     Memory          Disk    |
| Model and support data                              113.1 MB        29.8 MB |
| Electronic energy minimisation requirements          20.2 MB         0.0 MB |
| Geometry minimisation requirements                   23.6 MB         0.0 MB |
|                                               ----------------------------- |
| Approx. total storage required per process          156.8 MB        29.8 MB |
|                                                                             |
| Requirements will fluctuate during execution and may exceed these estimates |
+-----------------------------------------------------------------------------+
 
 
                           -------------------------------
                                      Unit Cell
                           -------------------------------
        Real Lattice(A)              Reciprocal Lattice(1/A)
     7.2500257     0.0000000     0.0000000        0.866643180  -0.000000000  -0.000000000
     0.0000000     7.2500257     0.0000000       -0.000000000   0.866643180  -0.000000000
     0.0000000     0.0000000     7.2500257       -0.000000000  -0.000000000   0.866643180
 
                       Lattice parameters(A)       Cell Angles
                    a =      7.250026          alpha =   90.000000
                    b =      7.250026          beta  =   90.000000
                    c =      7.250026          gamma =   90.000000
 
                Current cell volume =           381.082174 A**3
                            density =             5.336046 amu/A**3
                                    =             8.860713 g/cm^3
 
                           -------------------------------
                                     Cell Contents
                           -------------------------------
 
            xxxxxxxxxxxxxxxxxxxxxxxxxxxxxxxxxxxxxxxxxxxxxxxxxxxxxxxxxxxxxxxxx
            x  Element         Atom        Fractional coordinates of atoms  x
            x                 Number           u          v          w      x
            x---------------------------------------------------------------x
            x  Cu                1         1.000000   0.000000  -0.000000   x
            x  Cu                2         1.000000   0.250000   0.250000   x
            x  Cu                3         0.250000   0.000000   0.250000   x
            x  Cu                4         0.250000   0.250000  -0.000000   x
            x  Cu                5         0.000000  -0.000000   0.500000   x
            x  Cu                6         0.000000   0.250000   0.750000   x
            x  Cu                7         0.250000   0.000000   0.750000   x
            x  Cu                8         0.250000   0.250000   0.500000   x
            x  Cu                9         1.000000   0.500000   0.000000   x
            x  Cu               10         0.000000   0.750000   0.250000   x
            x  Cu               11         0.250000   0.500000   0.250000   x
            x  Cu               12         0.250000   0.750000   0.000000   x
            x  Cu               13         0.000000   0.500000   0.500000   x
            x  Cu               14         0.000000   0.750000   0.750000   x
            x  Cu               15         0.250000   0.500000   0.750000   x
            x  Cu               16         0.250000   0.750000   0.500000   x
            x  Cu               17         0.500000   0.000000  -0.000000   x
            x  Cu               18         0.500000   0.250000   0.250000   x
            x  Cu               19         0.750000   0.000000   0.250000   x
            x  Cu               20         0.750000   0.250000  -0.000000   x
            x  Cu               21         0.500000   0.000000   0.500000   x
            x  Cu               22         0.500000   0.250000   0.750000   x
            x  Cu               23         0.750000   0.000000   0.750000   x
            x  Cu               24         0.750000   0.250000   0.500000   x
            x  Cu               25         0.500000   0.500000   0.000000   x
            x  Cu               26         0.500000   0.750000   0.250000   x
            x  Cu               27         0.750000   0.500000   0.250000   x
            x  Cu               28         0.750000   0.750000  -0.000000   x
            x  Cu               29         0.500000   0.500000   0.500000   x
            x  Cu               30         0.500000   0.750000   0.750000   x
            x  Cu               31         0.750000   0.500000   0.750000   x
            x  Cu               32         0.750000   0.750000   0.500000   x
            xxxxxxxxxxxxxxxxxxxxxxxxxxxxxxxxxxxxxxxxxxxxxxxxxxxxxxxxxxxxxxxxx
 
 
------------------------------------------------------------------------ <-- SCF
SCF loop      Energy           Fermi           Energy gain       Timer   <-- SCF
                               energy          per atom          (sec)   <-- SCF
------------------------------------------------------------------------ <-- SCF
Initial  -5.37857776E+004  0.00000000E+000                        94.79  <-- SCF
      1  -5.37884261E+004  4.18513569E+000   8.27645964E-002      96.55  <-- SCF
      2  -5.37884296E+004  4.18512996E+000   1.07847643E-004      98.27  <-- SCF
      3  -5.37923663E+004  5.10032157E+000   1.23022420E-001      99.85  <-- SCF
      4  -5.37868218E+004  4.46161996E+000  -1.73266522E-001     101.43  <-- SCF
      5  -5.37870759E+004  4.48422410E+000   7.94172683E-003     103.00  <-- SCF
      6  -5.37870371E+004  4.48344364E+000  -1.21242824E-003     104.57  <-- SCF
      7  -5.37870400E+004  4.48188471E+000   9.17571068E-005     106.14  <-- SCF
      8  -5.37870403E+004  4.48185393E+000   7.81320778E-006     107.73  <-- SCF
      9  -5.37870382E+004  4.48184942E+000  -6.48353248E-005     109.29  <-- SCF
     10  -5.37870390E+004  4.48187476E+000   2.58693204E-005     110.81  <-- SCF
     11  -5.37870382E+004  4.48182758E+000  -2.48165166E-005     112.34  <-- SCF
     12  -5.37870381E+004  4.48182426E+000  -5.82407854E-006     113.40  <-- SCF
     13  -5.37870381E+004  4.48183491E+000   2.79036127E-006     114.47  <-- SCF
------------------------------------------------------------------------ <-- SCF
 
Final energy, E             =  -53786.37620717     eV
Final free energy (E-TS)    =  -53787.03814116     eV
(energies not corrected for finite basis set)
 
NB est. 0K energy (E-0.5TS)      =  -53786.70717417     eV
 
 
 ************************************** Forces **************************************
 *                                                                                  *
 *                           Cartesian components (eV/A)                            *
 * -------------------------------------------------------------------------------- *
 *                         x                    y                    z              *
 *                                                                                  *
 * Cu              1      0.00002              0.00004             -0.00012         *
 * Cu              2      0.00008              0.00217              0.00178         *
 * Cu              3      0.00191              0.00006              0.00186         *
 * Cu              4      0.00209              0.00173             -0.00005         *
 * Cu              5      0.00000             -0.00012              0.00013         *
 * Cu              6     -0.00006              0.00162             -0.00177         *
 * Cu              7      0.00218              0.00019             -0.00186         *
 * Cu              8      0.00226              0.00184              0.00003         *
 * Cu              9     -0.00005             -0.00010              0.00037         *
 * Cu             10     -0.00002             -0.00216              0.00196         *
 * Cu             11      0.00184             -0.00007              0.00195         *
 * Cu             12      0.00190             -0.00172              0.00006         *
 * Cu             13     -0.00010              0.00014             -0.00035         *
 * Cu             14     -0.00012             -0.00162             -0.00193         *
 * Cu             15      0.00216             -0.00020             -0.00195         *
 * Cu             16      0.00203             -0.00181             -0.00004         *
 * Cu             17     -0.00004              0.00023             -0.00042         *
 * Cu             18     -0.00004              0.00204              0.00189         *
 * Cu             19     -0.00198             -0.00001              0.00188         *
 * Cu             20     -0.00207              0.00187             -0.00014         *
 * Cu             21     -0.00003              0.00003              0.00042         *
 * Cu             22      0.00007              0.00155             -0.00190         *
 * Cu             23     -0.00223              0.00009             -0.00187         *
 * Cu             24     -0.00219              0.00196              0.00012         *
 * Cu             25      0.00007             -0.00029              0.00011         *
 * Cu             26      0.00005             -0.00207              0.00204         *
 * Cu             27     -0.00184              0.00005              0.00196         *
 * Cu             28     -0.00187             -0.00186             -0.00006         *
 * Cu             29      0.00010             -0.00006             -0.00007         *
 * Cu             30      0.00011             -0.00157             -0.00210         *
 * Cu             31     -0.00214             -0.00008             -0.00196         *
 * Cu             32     -0.00206             -0.00192              0.00003         *
 *                                                                                  *
 ************************************************************************************
 
 ***************** Stress Tensor *****************
 *                                               *
 *          Cartesian components (GPa)           *
 * --------------------------------------------- *
 *             x             y             z     *
 *                                               *
 *  x     -3.012844      0.000057     -0.000095  *
 *  y      0.000057     -3.012993      0.000064  *
 *  z     -0.000095      0.000064     -3.012805  *
 *                                               *
 *  Pressure:    3.0129                          *
 *                                               *
 *************************************************
 
 *********** Constrained Stress Tensor ***********
 *                                               *
 *          Cartesian components (GPa)           *
 * --------------------------------------------- *
 *             x             y             z     *
 *                                               *
 *  x     -3.012881      0.000000     -0.000000  *
 *  y      0.000000     -3.012881      0.000000  *
 *  z     -0.000000      0.000000     -3.012881  *
 *                                               *
 *  Pressure:    3.0129                          *
 *                                               *
 *************************************************
  
 +------------+-------------+-------------+-----------------+ <-- min LBFGS
 |    Step    |   lambda    |   F.delta'  |    enthalpy     | <-- min LBFGS
 +------------+-------------+-------------+-----------------+ <-- min LBFGS
 |  previous  |    0.000000 |    0.623815 |   -53786.956159 | <-- min LBFGS
 | trial step |    1.000000 |    0.454884 |   -53787.011979 | <-- min LBFGS
 +------------+-------------+-------------+-----------------+ <-- min LBFGS
  
 LBFGS: finished iteration     1 with enthalpy= -5.37870120E+004 eV
  
 +-----------+-----------------+-----------------+------------+-----+ <-- LBFGS
 | Parameter |      value      |    tolerance    |    units   | OK? | <-- LBFGS
 +-----------+-----------------+-----------------+------------+-----+ <-- LBFGS
 |  dE/ion   |   1.744389E-003 |   2.000000E-005 |         eV | No  | <-- LBFGS
 |  |F|max   |   2.943413E-003 |   5.000000E-002 |       eV/A | Yes | <-- LBFGS
 |  |dR|max  |   4.084121E-006 |   1.000000E-003 |          A | Yes | <-- LBFGS
 |   Smax    |   3.012881E+000 |   1.000000E-001 |        GPa | No  | <-- LBFGS
 +-----------+-----------------+-----------------+------------+-----+ <-- LBFGS
  

================================================================================
 Starting LBFGS iteration          2 ...
================================================================================
  
 +------------+-------------+-------------+-----------------+ <-- min LBFGS
 |    Step    |   lambda    |   F.delta'  |    enthalpy     | <-- min LBFGS
 +------------+-------------+-------------+-----------------+ <-- min LBFGS
 |  previous  |    0.000000 |    0.454885 |   -53787.011979 | <-- min LBFGS
 +------------+-------------+-------------+-----------------+ <-- min LBFGS
  

--------------------------------------------------------------------------------
 LBFGS: starting iteration         2 with trial guess (lambda=  1.000000)
--------------------------------------------------------------------------------
 
+---------------- MEMORY AND SCRATCH DISK ESTIMATES PER PROCESS --------------+
|                                                     Memory          Disk    |
| Model and support data                              113.2 MB        29.8 MB |
| Electronic energy minimisation requirements          20.3 MB         0.0 MB |
| Geometry minimisation requirements                   23.7 MB         0.0 MB |
|                                               ----------------------------- |
| Approx. total storage required per process          157.1 MB        29.8 MB |
|                                                                             |
| Requirements will fluctuate during execution and may exceed these estimates |
+-----------------------------------------------------------------------------+
 
 
                           -------------------------------
                                      Unit Cell
                           -------------------------------
        Real Lattice(A)              Reciprocal Lattice(1/A)
     7.2646283    -0.0000000     0.0000000        0.864901139   0.000000000  -0.000000000
    -0.0000000     7.2646283    -0.0000000        0.000000000   0.864901139   0.000000000
     0.0000000    -0.0000000     7.2646283       -0.000000000   0.000000000   0.864901139
 
                       Lattice parameters(A)       Cell Angles
                    a =      7.264628          alpha =   90.000000
                    b =      7.264628          beta  =   90.000000
                    c =      7.264628          gamma =   90.000000
 
                Current cell volume =           383.389485 A**3
                            density =             5.303933 amu/A**3
                                    =             8.807387 g/cm^3
 
                           -------------------------------
                                     Cell Contents
                           -------------------------------
 
            xxxxxxxxxxxxxxxxxxxxxxxxxxxxxxxxxxxxxxxxxxxxxxxxxxxxxxxxxxxxxxxxx
            x  Element         Atom        Fractional coordinates of atoms  x
            x                 Number           u          v          w      x
            x---------------------------------------------------------------x
            x  Cu                1         1.000000   0.000000  -0.000000   x
            x  Cu                2         1.000000   0.250001   0.250001   x
            x  Cu                3         0.250001   0.000000   0.250001   x
            x  Cu                4         0.250001   0.250001  -0.000000   x
            x  Cu                5         0.000000  -0.000000   0.500000   x
            x  Cu                6         0.000000   0.250001   0.749999   x
            x  Cu                7         0.250001   0.000000   0.749999   x
            x  Cu                8         0.250001   0.250001   0.500000   x
            x  Cu                9         1.000000   0.500000   0.000000   x
            x  Cu               10         0.000000   0.749999   0.250001   x
            x  Cu               11         0.250001   0.500000   0.250001   x
            x  Cu               12         0.250001   0.749999   0.000000   x
            x  Cu               13        -0.000000   0.500000   0.500000   x
            x  Cu               14        -0.000000   0.749999   0.749999   x
            x  Cu               15         0.250001   0.500000   0.749999   x
            x  Cu               16         0.250001   0.749999   0.500000   x
            x  Cu               17         0.500000   0.000000  -0.000000   x
            x  Cu               18         0.500000   0.250001   0.250001   x
            x  Cu               19         0.749999   0.000000   0.250001   x
            x  Cu               20         0.749999   0.250001  -0.000000   x
            x  Cu               21         0.500000   0.000000   0.500000   x
            x  Cu               22         0.500000   0.250001   0.749999   x
            x  Cu               23         0.749999   0.000000   0.749999   x
            x  Cu               24         0.749999   0.250001   0.500000   x
            x  Cu               25         0.500000   0.500000   0.000000   x
            x  Cu               26         0.500000   0.749999   0.250001   x
            x  Cu               27         0.749999   0.500000   0.250001   x
            x  Cu               28         0.749999   0.749999  -0.000000   x
            x  Cu               29         0.500000   0.500000   0.500000   x
            x  Cu               30         0.500000   0.749999   0.749999   x
            x  Cu               31         0.749999   0.500000   0.749999   x
            x  Cu               32         0.749999   0.749999   0.500000   x
            xxxxxxxxxxxxxxxxxxxxxxxxxxxxxxxxxxxxxxxxxxxxxxxxxxxxxxxxxxxxxxxxx
 
 
------------------------------------------------------------------------ <-- SCF
SCF loop      Energy           Fermi           Energy gain       Timer   <-- SCF
                               energy          per atom          (sec)   <-- SCF
------------------------------------------------------------------------ <-- SCF
Initial  -5.37860669E+004  0.00000000E+000                       120.88  <-- SCF
      1  -5.37878112E+004  4.20821942E+000   5.45119649E-002     122.64  <-- SCF
      2  -5.37878132E+004  4.20821500E+000   6.13812210E-005     124.32  <-- SCF
      3  -5.37900178E+004  4.87470640E+000   6.88931056E-002     125.89  <-- SCF
      4  -5.37869944E+004  4.42267753E+000  -9.44810868E-002     127.46  <-- SCF
      5  -5.37876051E+004  4.42237170E+000   1.90848260E-002     129.06  <-- SCF
      6  -5.37870398E+004  4.42490161E+000  -1.76649972E-002     130.62  <-- SCF
      7  -5.37871156E+004  4.42717908E+000   2.36893949E-003     132.21  <-- SCF
      8  -5.37870656E+004  4.42466035E+000  -1.56436205E-003     133.78  <-- SCF
      9  -5.37870698E+004  4.42507601E+000   1.30967831E-004     135.36  <-- SCF
     10  -5.37870682E+004  4.42503711E+000  -4.99604637E-005     136.93  <-- SCF
     11  -5.37870680E+004  4.42499838E+000  -3.78982215E-006     138.07  <-- SCF
     12  -5.37870684E+004  4.42500549E+000   1.13737915E-005     139.26  <-- SCF
     13  -5.37870679E+004  4.42500548E+000  -1.49266426E-005     140.42  <-- SCF
     14  -5.37870679E+004  4.42500239E+000   4.31546758E-007     141.48  <-- SCF
     15  -5.37870680E+004  4.42500006E+000   6.84034025E-007     142.55  <-- SCF
------------------------------------------------------------------------ <-- SCF
 
Final energy, E             =  -53786.41581548     eV
Final free energy (E-TS)    =  -53787.06796119     eV
(energies not corrected for finite basis set)
 
NB est. 0K energy (E-0.5TS)      =  -53786.74188833     eV
 
 
 ************************************** Forces **************************************
 *                                                                                  *
 *                           Cartesian components (eV/A)                            *
 * -------------------------------------------------------------------------------- *
 *                         x                    y                    z              *
 *                                                                                  *
 * Cu              1      0.00024              0.00010              0.00029         *
 * Cu              2      0.00016              0.00191              0.00208         *
 * Cu              3      0.00186              0.00009              0.00202         *
 * Cu              4      0.00194              0.00196             -0.00008         *
 * Cu              5      0.00029              0.00021             -0.00024         *
 * Cu              6      0.00023              0.00227             -0.00208         *
 * Cu              7      0.00203              0.00022             -0.00201         *
 * Cu              8      0.00191              0.00202              0.00007         *
 * Cu              9     -0.00016             -0.00009             -0.00005         *
 * Cu             10     -0.00008             -0.00194              0.00197         *
 * Cu             11      0.00203             -0.00008              0.00209         *
 * Cu             12      0.00210             -0.00199              0.00005         *
 * Cu             13     -0.00006             -0.00019              0.00007         *
 * Cu             14     -0.00004             -0.00229             -0.00198         *
 * Cu             15      0.00219             -0.00022             -0.00207         *
 * Cu             16      0.00211             -0.00205             -0.00007         *
 * Cu             17     -0.00024             -0.00010              0.00014         *
 * Cu             18     -0.00013              0.00213              0.00206         *
 * Cu             19     -0.00189             -0.00015              0.00193         *
 * Cu             20     -0.00189              0.00238             -0.00001         *
 * Cu             21     -0.00032              0.00002             -0.00013         *
 * Cu             22     -0.00025              0.00244             -0.00207         *
 * Cu             23     -0.00201              0.00005             -0.00195         *
 * Cu             24     -0.00189              0.00247             -0.00001         *
 * Cu             25      0.00013              0.00011             -0.00016         *
 * Cu             26      0.00010             -0.00212              0.00195         *
 * Cu             27     -0.00209              0.00013              0.00199         *
 * Cu             28     -0.00209             -0.00234              0.00014         *
 * Cu             29      0.00005             -0.00000              0.00017         *
 * Cu             30      0.00003             -0.00248             -0.00196         *
 * Cu             31     -0.00218             -0.00005             -0.00199         *
 * Cu             32     -0.00209             -0.00245             -0.00016         *
 *                                                                                  *
 ************************************************************************************
 
 ***************** Stress Tensor *****************
 *                                               *
 *          Cartesian components (GPa)           *
 * --------------------------------------------- *
 *             x             y             z     *
 *                                               *
 *  x     -2.186823     -0.000011     -0.000007  *
 *  y     -0.000011     -2.186842      0.000020  *
 *  z     -0.000007      0.000020     -2.186974  *
 *                                               *
 *  Pressure:    2.1869                          *
 *                                               *
 *************************************************
 
 *********** Constrained Stress Tensor ***********
 *                                               *
 *          Cartesian components (GPa)           *
 * --------------------------------------------- *
 *             x             y             z     *
 *                                               *
 *  x     -2.186880     -0.000000      0.000000  *
 *  y     -0.000000     -2.186880      0.000000  *
 *  z      0.000000      0.000000     -2.186880  *
 *                                               *
 *  Pressure:    2.1869                          *
 *                                               *
 *************************************************
  
 +------------+-------------+-------------+-----------------+ <-- min LBFGS
 |    Step    |   lambda    |   F.delta'  |    enthalpy     | <-- min LBFGS
 +------------+-------------+-------------+-----------------+ <-- min LBFGS
 |  previous  |    0.000000 |    0.454885 |   -53787.011979 | <-- min LBFGS
 | trial step |    1.000000 |    0.331508 |   -53787.035459 | <-- min LBFGS
 +------------+-------------+-------------+-----------------+ <-- min LBFGS
  
 LBFGS: finished iteration     2 with enthalpy= -5.37870355E+004 eV
  
 +-----------+-----------------+-----------------+------------+-----+ <-- LBFGS
 | Parameter |      value      |    tolerance    |    units   | OK? | <-- LBFGS
 +-----------+-----------------+-----------------+------------+-----+ <-- LBFGS
 |  dE/ion   |   7.337435E-004 |   2.000000E-005 |         eV | No  | <-- LBFGS
 |  |F|max   |   3.222910E-003 |   5.000000E-002 |       eV/A | Yes | <-- LBFGS
 |  |dR|max  |   4.562480E-006 |   1.000000E-003 |          A | Yes | <-- LBFGS
 |   Smax    |   2.186880E+000 |   1.000000E-001 |        GPa | No  | <-- LBFGS
 +-----------+-----------------+-----------------+------------+-----+ <-- LBFGS
  

================================================================================
 Starting LBFGS iteration          3 ...
================================================================================
  
 +------------+-------------+-------------+-----------------+ <-- min LBFGS
 |    Step    |   lambda    |   F.delta'  |    enthalpy     | <-- min LBFGS
 +------------+-------------+-------------+-----------------+ <-- min LBFGS
 |  previous  |    0.000000 |    0.331509 |   -53787.035459 | <-- min LBFGS
 +------------+-------------+-------------+-----------------+ <-- min LBFGS
  

--------------------------------------------------------------------------------
 LBFGS: starting iteration         3 with trial guess (lambda=  1.000000)
--------------------------------------------------------------------------------
 
+---------------- MEMORY AND SCRATCH DISK ESTIMATES PER PROCESS --------------+
|                                                     Memory          Disk    |
| Model and support data                              113.2 MB        29.8 MB |
| Electronic energy minimisation requirements          20.4 MB         0.0 MB |
| Geometry minimisation requirements                   23.8 MB         0.0 MB |
|                                               ----------------------------- |
| Approx. total storage required per process          157.3 MB        29.8 MB |
|                                                                             |
| Requirements will fluctuate during execution and may exceed these estimates |
+-----------------------------------------------------------------------------+
 
 
                           -------------------------------
                                      Unit Cell
                           -------------------------------
        Real Lattice(A)              Reciprocal Lattice(1/A)
     7.2752703     0.0000000     0.0000000        0.863635996  -0.000000000  -0.000000000
     0.0000000     7.2752703    -0.0000000       -0.000000000   0.863635996   0.000000000
     0.0000000    -0.0000000     7.2752703       -0.000000000   0.000000000   0.863635996
 
                       Lattice parameters(A)       Cell Angles
                    a =      7.275270          alpha =   90.000000
                    b =      7.275270          beta  =   90.000000
                    c =      7.275270          gamma =   90.000000
 
                Current cell volume =           385.076840 A**3
                            density =             5.280692 amu/A**3
                                    =             8.768794 g/cm^3
 
                           -------------------------------
                                     Cell Contents
                           -------------------------------
 
            xxxxxxxxxxxxxxxxxxxxxxxxxxxxxxxxxxxxxxxxxxxxxxxxxxxxxxxxxxxxxxxxx
            x  Element         Atom        Fractional coordinates of atoms  x
            x                 Number           u          v          w      x
            x---------------------------------------------------------------x
            x  Cu                1         1.000000   0.000000   0.000000   x
            x  Cu                2         1.000000   0.250001   0.250001   x
            x  Cu                3         0.250001   0.000000   0.250001   x
            x  Cu                4         0.250001   0.250001  -0.000000   x
            x  Cu                5         0.000000   0.000000   0.500000   x
            x  Cu                6         0.000000   0.250001   0.749999   x
            x  Cu                7         0.250001   0.000000   0.749999   x
            x  Cu                8         0.250001   0.250001   0.500000   x
            x  Cu                9         1.000000   0.500000   0.000000   x
            x  Cu               10        -0.000000   0.749999   0.250001   x
            x  Cu               11         0.250001   0.500000   0.250001   x
            x  Cu               12         0.250001   0.749999   0.000000   x
            x  Cu               13        -0.000000   0.500000   0.500000   x
            x  Cu               14        -0.000000   0.749999   0.749999   x
            x  Cu               15         0.250001   0.500000   0.749999   x
            x  Cu               16         0.250001   0.749999   0.500000   x
            x  Cu               17         0.500000   0.000000  -0.000000   x
            x  Cu               18         0.500000   0.250001   0.250001   x
            x  Cu               19         0.749999  -0.000000   0.250001   x
            x  Cu               20         0.749999   0.250001  -0.000000   x
            x  Cu               21         0.500000   0.000000   0.500000   x
            x  Cu               22         0.500000   0.250001   0.749999   x
            x  Cu               23         0.749999   0.000000   0.749999   x
            x  Cu               24         0.749999   0.250001   0.500000   x
            x  Cu               25         0.500000   0.500000  -0.000000   x
            x  Cu               26         0.500000   0.749999   0.250001   x
            x  Cu               27         0.749999   0.500000   0.250001   x
            x  Cu               28         0.749999   0.749999   0.000000   x
            x  Cu               29         0.500000   0.500000   0.500000   x
            x  Cu               30         0.500000   0.749999   0.749999   x
            x  Cu               31         0.749999   0.500000   0.749999   x
            x  Cu               32         0.749999   0.749999   0.500000   x
            xxxxxxxxxxxxxxxxxxxxxxxxxxxxxxxxxxxxxxxxxxxxxxxxxxxxxxxxxxxxxxxxx
 
 
------------------------------------------------------------------------ <-- SCF
SCF loop      Energy           Fermi           Energy gain       Timer   <-- SCF
                               energy          per atom          (sec)   <-- SCF
------------------------------------------------------------------------ <-- SCF
Initial  -5.37862348E+004  0.00000000E+000                       148.95  <-- SCF
      1  -5.37874520E+004  4.22608397E+000   3.80379605E-002     150.72  <-- SCF
      2  -5.37874530E+004  4.22608336E+000   3.18237222E-005     152.34  <-- SCF
      3  -5.37886350E+004  4.70980083E+000   3.69355250E-002     153.92  <-- SCF
      4  -5.37870139E+004  4.38192435E+000  -5.06591816E-002     155.50  <-- SCF
      5  -5.37872599E+004  4.38133844E+000   7.68890261E-003     157.10  <-- SCF
      6  -5.37870472E+004  4.38476748E+000  -6.64830329E-003     158.68  <-- SCF
      7  -5.37870746E+004  4.38539854E+000   8.57310767E-004     160.27  <-- SCF
      8  -5.37870577E+004  4.38404583E+000  -5.27989607E-004     161.85  <-- SCF
      9  -5.37870594E+004  4.38427532E+000   5.27628317E-005     163.32  <-- SCF
     10  -5.37870586E+004  4.38425766E+000  -2.40332137E-005     164.78  <-- SCF
     11  -5.37870586E+004  4.38422018E+000  -1.28540382E-006     165.85  <-- SCF
     12  -5.37870586E+004  4.38422416E+000   8.58949476E-007     166.93  <-- SCF
------------------------------------------------------------------------ <-- SCF
 
Final energy, E             =  -53786.41256640     eV
Final free energy (E-TS)    =  -53787.05863044     eV
(energies not corrected for finite basis set)
 
NB est. 0K energy (E-0.5TS)      =  -53786.73559842     eV
 
 
 ************************************** Forces **************************************
 *                                                                                  *
 *                           Cartesian components (eV/A)                            *
 * -------------------------------------------------------------------------------- *
 *                         x                    y                    z              *
 *                                                                                  *
 * Cu              1      0.00040             -0.00020              0.00000         *
 * Cu              2      0.00043              0.00214              0.00188         *
 * Cu              3      0.00198             -0.00036              0.00190         *
 * Cu              4      0.00190              0.00227              0.00030         *
 * Cu              5      0.00027             -0.00030             -0.00001         *
 * Cu              6      0.00032              0.00179             -0.00190         *
 * Cu              7      0.00187             -0.00043             -0.00190         *
 * Cu              8      0.00191              0.00223             -0.00030         *
 * Cu              9      0.00091              0.00017              0.00035         *
 * Cu             10      0.00081             -0.00223              0.00202         *
 * Cu             11      0.00187              0.00033              0.00184         *
 * Cu             12      0.00186             -0.00231              0.00025         *
 * Cu             13      0.00086              0.00033             -0.00033         *
 * Cu             14      0.00071             -0.00188             -0.00202         *
 * Cu             15      0.00176              0.00046             -0.00182         *
 * Cu             16      0.00187             -0.00219             -0.00022         *
 * Cu             17     -0.00041             -0.00019              0.00012         *
 * Cu             18     -0.00047              0.00214              0.00186         *
 * Cu             19     -0.00201             -0.00006              0.00200         *
 * Cu             20     -0.00194              0.00175              0.00026         *
 * Cu             21     -0.00031             -0.00030             -0.00012         *
 * Cu             22     -0.00031              0.00175             -0.00188         *
 * Cu             23     -0.00187             -0.00016             -0.00202         *
 * Cu             24     -0.00192              0.00167             -0.00026         *
 * Cu             25     -0.00093              0.00021              0.00047         *
 * Cu             26     -0.00076             -0.00208              0.00199         *
 * Cu             27     -0.00184              0.00009              0.00193         *
 * Cu             28     -0.00189             -0.00170              0.00010         *
 * Cu             29     -0.00081              0.00036             -0.00045         *
 * Cu             30     -0.00067             -0.00179             -0.00198         *
 * Cu             31     -0.00172              0.00019             -0.00194         *
 * Cu             32     -0.00187             -0.00171             -0.00014         *
 *                                                                                  *
 ************************************************************************************
 
 ***************** Stress Tensor *****************
 *                                               *
 *          Cartesian components (GPa)           *
 * --------------------------------------------- *
 *             x             y             z     *
 *                                               *
 *  x     -1.508094      0.000027     -0.000034  *
 *  y      0.000027     -1.508252     -0.000013  *
 *  z     -0.000034     -0.000013     -1.507968  *
 *                                               *
 *  Pressure:    1.5081                          *
 *                                               *
 *************************************************
 
 *********** Constrained Stress Tensor ***********
 *                                               *
 *          Cartesian components (GPa)           *
 * --------------------------------------------- *
 *             x             y             z     *
 *                                               *
 *  x     -1.508105      0.000000     -0.000000  *
 *  y      0.000000     -1.508105     -0.000000  *
 *  z     -0.000000     -0.000000     -1.508105  *
 *                                               *
 *  Pressure:    1.5081                          *
 *                                               *
 *************************************************
  
 +------------+-------------+-------------+-----------------+ <-- min LBFGS
 |    Step    |   lambda    |   F.delta'  |    enthalpy     | <-- min LBFGS
 +------------+-------------+-------------+-----------------+ <-- min LBFGS
 |  previous  |    0.000000 |    0.331509 |   -53787.035459 | <-- min LBFGS
 | trial step |    1.000000 |    0.229285 |   -53787.046515 | <-- min LBFGS
 +------------+-------------+-------------+-----------------+ <-- min LBFGS
  
 LBFGS: finished iteration     3 with enthalpy= -5.37870465E+004 eV
  
 +-----------+-----------------+-----------------+------------+-----+ <-- LBFGS
 | Parameter |      value      |    tolerance    |    units   | OK? | <-- LBFGS
 +-----------+-----------------+-----------------+------------+-----+ <-- LBFGS
 |  dE/ion   |   3.454906E-004 |   2.000000E-005 |         eV | No  | <-- LBFGS
 |  |F|max   |   3.112929E-003 |   5.000000E-002 |       eV/A | Yes | <-- LBFGS
 |  |dR|max  |   5.013113E-006 |   1.000000E-003 |          A | Yes | <-- LBFGS
 |   Smax    |   1.508105E+000 |   1.000000E-001 |        GPa | No  | <-- LBFGS
 +-----------+-----------------+-----------------+------------+-----+ <-- LBFGS
  

================================================================================
 Starting LBFGS iteration          4 ...
================================================================================
  
 +------------+-------------+-------------+-----------------+ <-- min LBFGS
 |    Step    |   lambda    |   F.delta'  |    enthalpy     | <-- min LBFGS
 +------------+-------------+-------------+-----------------+ <-- min LBFGS
 |  previous  |    0.000000 |    0.229287 |   -53787.046515 | <-- min LBFGS
 +------------+-------------+-------------+-----------------+ <-- min LBFGS
  

--------------------------------------------------------------------------------
 LBFGS: starting iteration         4 with trial guess (lambda=  1.000000)
--------------------------------------------------------------------------------
 
                           -------------------------------
                                      Unit Cell
                           -------------------------------
        Real Lattice(A)              Reciprocal Lattice(1/A)
     7.2826307    -0.0000000     0.0000000        0.862763140   0.000000000  -0.000000000
    -0.0000000     7.2826307     0.0000000        0.000000000   0.862763140  -0.000000000
     0.0000000     0.0000000     7.2826307       -0.000000000  -0.000000000   0.862763140
 
                       Lattice parameters(A)       Cell Angles
                    a =      7.282631          alpha =   90.000000
                    b =      7.282631          beta  =   90.000000
                    c =      7.282631          gamma =   90.000000
 
                Current cell volume =           386.246767 A**3
                            density =             5.264696 amu/A**3
                                    =             8.742234 g/cm^3
 
                           -------------------------------
                                     Cell Contents
                           -------------------------------
 
            xxxxxxxxxxxxxxxxxxxxxxxxxxxxxxxxxxxxxxxxxxxxxxxxxxxxxxxxxxxxxxxxx
            x  Element         Atom        Fractional coordinates of atoms  x
            x                 Number           u          v          w      x
            x---------------------------------------------------------------x
            x  Cu                1         1.000000  -0.000000   0.000000   x
            x  Cu                2         1.000000   0.250002   0.250002   x
            x  Cu                3         0.250002  -0.000000   0.250002   x
            x  Cu                4         0.250002   0.250002   0.000000   x
            x  Cu                5         0.000000  -0.000000   0.500000   x
            x  Cu                6         0.000000   0.250002   0.749998   x
            x  Cu                7         0.250002   0.000000   0.749998   x
            x  Cu                8         0.250002   0.250002   0.500000   x
            x  Cu                9         1.000000   0.500000   0.000000   x
            x  Cu               10         0.000000   0.749998   0.250002   x
            x  Cu               11         0.250002   0.500000   0.250002   x
            x  Cu               12         0.250002   0.749998   0.000000   x
            x  Cu               13         0.000000   0.500000   0.500000   x
            x  Cu               14         0.000000   0.749998   0.749998   x
            x  Cu               15         0.250002   0.500000   0.749998   x
            x  Cu               16         0.250002   0.749998   0.500000   x
            x  Cu               17         0.500000   0.000000  -0.000000   x
            x  Cu               18         0.500000   0.250002   0.250002   x
            x  Cu               19         0.749998  -0.000000   0.250002   x
            x  Cu               20         0.749998   0.250002   0.000000   x
            x  Cu               21         0.500000  -0.000000   0.500000   x
            x  Cu               22         0.500000   0.250002   0.749998   x
            x  Cu               23         0.749998   0.000000   0.749998   x
            x  Cu               24         0.749998   0.250002   0.500000   x
            x  Cu               25         0.500000   0.500000   0.000000   x
            x  Cu               26         0.500000   0.749998   0.250002   x
            x  Cu               27         0.749998   0.500000   0.250002   x
            x  Cu               28         0.749998   0.749998   0.000000   x
            x  Cu               29         0.500000   0.500000   0.500000   x
            x  Cu               30         0.500000   0.749998   0.749998   x
            x  Cu               31         0.749998   0.500000   0.749998   x
            x  Cu               32         0.749998   0.749998   0.500000   x
            xxxxxxxxxxxxxxxxxxxxxxxxxxxxxxxxxxxxxxxxxxxxxxxxxxxxxxxxxxxxxxxxx
 
 
------------------------------------------------------------------------ <-- SCF
SCF loop      Energy           Fermi           Energy gain       Timer   <-- SCF
                               energy          per atom          (sec)   <-- SCF
------------------------------------------------------------------------ <-- SCF
Initial  -5.37863121E+004  0.00000000E+000                       173.17  <-- SCF
      1  -5.37872138E+004  4.24666341E+000   2.81772681E-002     174.93  <-- SCF
      2  -5.37872142E+004  4.24666303E+000   1.21188453E-005     176.43  <-- SCF
      3  -5.37878223E+004  4.58131732E+000   1.90019346E-002     178.01  <-- SCF
      4  -5.37870185E+004  4.36093780E+000  -2.51187394E-002     179.58  <-- SCF
      5  -5.37873157E+004  4.34059919E+000   9.28743907E-003     181.16  <-- SCF
      6  -5.37870062E+004  4.35582209E+000  -9.66895816E-003     182.73  <-- SCF
      7  -5.37870492E+004  4.35840753E+000   1.34354453E-003     184.35  <-- SCF
      8  -5.37870215E+004  4.35587038E+000  -8.66940024E-004     185.93  <-- SCF
      9  -5.37870246E+004  4.35613194E+000   9.62839950E-005     187.50  <-- SCF
     10  -5.37870229E+004  4.35608873E+000  -5.18925572E-005     189.03  <-- SCF
     11  -5.37870230E+004  4.35604775E+000   3.85927468E-006     190.09  <-- SCF
     12  -5.37870230E+004  4.35605519E+000  -5.27541014E-007     191.16  <-- SCF
------------------------------------------------------------------------ <-- SCF
 
Final energy, E             =  -53786.38121651     eV
Final free energy (E-TS)    =  -53787.02302391     eV
(energies not corrected for finite basis set)
 
NB est. 0K energy (E-0.5TS)      =  -53786.70212021     eV
 
 
 ************************************** Forces **************************************
 *                                                                                  *
 *                           Cartesian components (eV/A)                            *
 * -------------------------------------------------------------------------------- *
 *                         x                    y                    z              *
 *                                                                                  *
 * Cu              1     -0.00032              0.00005             -0.00004         *
[...]
     Cu    23      Py                   0.165
     Cu    23      Pz                   0.165
     Cu    24      Dzz                  1.955
     Cu    24      Dzy                  1.932
     Cu    24      Dzx                  1.932
     Cu    24      Dxx-yy               1.955
     Cu    24      Dxy                  1.932
     Cu    24      S                    0.799
     Cu    24      Px                   0.165
     Cu    24      Py                   0.165
     Cu    24      Pz                   0.165
     Cu    25      Dzz                  1.955
     Cu    25      Dzy                  1.932
     Cu    25      Dzx                  1.932
     Cu    25      Dxx-yy               1.955
     Cu    25      Dxy                  1.932
     Cu    25      S                    0.799
     Cu    25      Px                   0.165
     Cu    25      Py                   0.165
     Cu    25      Pz                   0.165
     Cu    26      Dzz                  1.955
     Cu    26      Dzy                  1.932
     Cu    26      Dzx                  1.932
     Cu    26      Dxx-yy               1.955
     Cu    26      Dxy                  1.932
     Cu    26      S                    0.799
     Cu    26      Px                   0.165
     Cu    26      Py                   0.165
     Cu    26      Pz                   0.165
     Cu    27      Dzz                  1.955
     Cu    27      Dzy                  1.932
     Cu    27      Dzx                  1.932
     Cu    27      Dxx-yy               1.955
     Cu    27      Dxy                  1.932
     Cu    27      S                    0.799
     Cu    27      Px                   0.165
     Cu    27      Py                   0.165
     Cu    27      Pz                   0.165
     Cu    28      Dzz                  1.955
     Cu    28      Dzy                  1.932
     Cu    28      Dzx                  1.932
     Cu    28      Dxx-yy               1.955
     Cu    28      Dxy                  1.932
     Cu    28      S                    0.799
     Cu    28      Px                   0.165
     Cu    28      Py                   0.165
     Cu    28      Pz                   0.165
     Cu    29      Dzz                  1.955
     Cu    29      Dzy                  1.932
     Cu    29      Dzx                  1.932
     Cu    29      Dxx-yy               1.955
     Cu    29      Dxy                  1.932
     Cu    29      S                    0.799
     Cu    29      Px                   0.165
     Cu    29      Py                   0.165
     Cu    29      Pz                   0.165
     Cu    30      Dzz                  1.955
     Cu    30      Dzy                  1.932
     Cu    30      Dzx                  1.932
     Cu    30      Dxx-yy               1.955
     Cu    30      Dxy                  1.932
     Cu    30      S                    0.799
     Cu    30      Px                   0.165
     Cu    30      Py                   0.165
     Cu    30      Pz                   0.165
     Cu    31      Dzz                  1.955
     Cu    31      Dzy                  1.932
     Cu    31      Dzx                  1.932
     Cu    31      Dxx-yy               1.955
     Cu    31      Dxy                  1.932
     Cu    31      S                    0.799
     Cu    31      Px                   0.165
     Cu    31      Py                   0.165
     Cu    31      Pz                   0.165
     Cu    32      Dzz                  1.955
     Cu    32      Dzy                  1.932
     Cu    32      Dzx                  1.932
     Cu    32      Dxx-yy               1.955
     Cu    32      Dxy                  1.932
     Cu    32      S                    0.799
     Cu    32      Px                   0.165
     Cu    32      Py                   0.165
     Cu    32      Pz                   0.165
  -------------------------------------------
                           Total:     352.000
  -------------------------------------------
 
     Atomic Populations (Mulliken)
     -----------------------------
Species          Ion     s       p       d       f      Total   Charge (e)
==========================================================================
  Cu              1     0.799   0.494   9.706   0.000  11.000     0.000
  Cu              2     0.799   0.494   9.706   0.000  11.000    -0.000
  Cu              3     0.799   0.494   9.706   0.000  11.000    -0.000
  Cu              4     0.799   0.494   9.706   0.000  11.000     0.000
  Cu              5     0.799   0.494   9.706   0.000  11.000     0.000
  Cu              6     0.799   0.494   9.706   0.000  11.000    -0.000
  Cu              7     0.799   0.494   9.706   0.000  11.000    -0.000
  Cu              8     0.799   0.494   9.706   0.000  11.000     0.000
  Cu              9     0.799   0.494   9.706   0.000  11.000     0.000
  Cu             10     0.799   0.494   9.706   0.000  11.000    -0.000
  Cu             11     0.799   0.494   9.706   0.000  11.000    -0.000
  Cu             12     0.799   0.494   9.706   0.000  11.000     0.000
  Cu             13     0.799   0.494   9.706   0.000  11.000     0.000
  Cu             14     0.799   0.494   9.706   0.000  11.000    -0.000
  Cu             15     0.799   0.494   9.706   0.000  11.000    -0.000
  Cu             16     0.799   0.494   9.706   0.000  11.000     0.000
  Cu             17     0.799   0.494   9.706   0.000  11.000     0.000
  Cu             18     0.799   0.494   9.706   0.000  11.000    -0.000
  Cu             19     0.799   0.494   9.706   0.000  11.000    -0.000
  Cu             20     0.799   0.494   9.706   0.000  11.000     0.000
  Cu             21     0.799   0.494   9.706   0.000  11.000     0.000
  Cu             22     0.799   0.494   9.706   0.000  11.000    -0.000
  Cu             23     0.799   0.494   9.706   0.000  11.000    -0.000
  Cu             24     0.799   0.494   9.706   0.000  11.000     0.000
  Cu             25     0.799   0.494   9.706   0.000  11.000     0.000
  Cu             26     0.799   0.494   9.706   0.000  11.000    -0.000
  Cu             27     0.799   0.494   9.706   0.000  11.000    -0.000
  Cu             28     0.799   0.494   9.706   0.000  11.000     0.000
  Cu             29     0.799   0.494   9.706   0.000  11.000     0.000
  Cu             30     0.799   0.494   9.706   0.000  11.000     0.000
  Cu             31     0.799   0.494   9.706   0.000  11.000    -0.000
  Cu             32     0.799   0.494   9.706   0.000  11.000     0.000
==========================================================================
 
                 Bond                   Population      Length (A)
======================================================================
             Cu 16 -- Cu 26                  0.26        2.58198
             Cu 8  -- Cu 18                  0.26        2.58198
             Cu 11 -- Cu 18                  0.26        2.58198
             Cu 16 -- Cu 29                  0.26        2.58198
             Cu 8  -- Cu 29                  0.26        2.58198
             Cu 11 -- Cu 29                  0.26        2.58198
             Cu 8  -- Cu 22                  0.26        2.58198
             Cu 7  -- Cu 21                  0.26        2.58198
             Cu 26 -- Cu 29                  0.26        2.58198
             Cu 11 -- Cu 26                  0.26        2.58198
             Cu 16 -- Cu 30                  0.26        2.58198
             Cu 15 -- Cu 22                  0.26        2.58198
             Cu 4  -- Cu 25                  0.26        2.58198
             Cu 10 -- Cu 13                  0.26        2.58198
             Cu 15 -- Cu 29                  0.26        2.58198
             Cu 18 -- Cu 29                  0.26        2.58198
             Cu 15 -- Cu 30                  0.26        2.58198
             Cu 27 -- Cu 32                  0.26        2.58198
             Cu 11 -- Cu 16                  0.26        2.58198
             Cu 8  -- Cu 11                  0.26        2.58198
             Cu 24 -- Cu 31                  0.26        2.58198
             Cu 12 -- Cu 25                  0.26        2.58198
             Cu 2  -- Cu 13                  0.26        2.58198
             Cu 24 -- Cu 27                  0.26        2.58198
             Cu 8  -- Cu 15                  0.26        2.58198
             Cu 3  -- Cu 21                  0.26        2.58198
             Cu 31 -- Cu 32                  0.26        2.58198
             Cu 26 -- Cu 32                  0.26        2.58198
             Cu 29 -- Cu 30                  0.26        2.58199
             Cu 21 -- Cu 23                  0.26        2.58199
             Cu 29 -- Cu 32                  0.26        2.58199
             Cu 15 -- Cu 16                  0.26        2.58199
             Cu 30 -- Cu 32                  0.26        2.58199
             Cu 26 -- Cu 27                  0.26        2.58199
             Cu 22 -- Cu 24                  0.26        2.58199
             Cu 27 -- Cu 29                  0.26        2.58199
             Cu 24 -- Cu 29                  0.26        2.58199
             Cu 18 -- Cu 24                  0.26        2.58199
             Cu 18 -- Cu 27                  0.26        2.58199
             Cu 22 -- Cu 29                  0.26        2.58199
             Cu 22 -- Cu 31                  0.26        2.58199
             Cu 29 -- Cu 31                  0.26        2.58199
             Cu 30 -- Cu 31                  0.26        2.58199
             Cu 13 -- Cu 14                  0.26        2.58199
             Cu 20 -- Cu 25                  0.26        2.58199
             Cu 19 -- Cu 21                  0.26        2.58199
             Cu 6  -- Cu 13                  0.26        2.58199
             Cu 25 -- Cu 28                  0.26        2.58199
             Cu 7  -- Cu 17                  0.26        2.58204
             Cu 7  -- Cu 22                  0.26        2.58204
             Cu 11 -- Cu 13                  0.26        2.58204
             Cu 2  -- Cu 9                   0.26        2.58204
             Cu 2  -- Cu 11                  0.26        2.58204
             Cu 10 -- Cu 11                  0.26        2.58204
             Cu 4  -- Cu 17                  0.26        2.58204
             Cu 11 -- Cu 25                  0.26        2.58204
             Cu 7  -- Cu 30                  0.26        2.58204
             Cu 18 -- Cu 25                  0.26        2.58204
             Cu 4  -- Cu 18                  0.26        2.58204
             Cu 16 -- Cu 21                  0.26        2.58204
             Cu 21 -- Cu 30                  0.26        2.58204
             Cu 8  -- Cu 21                  0.26        2.58204
             Cu 4  -- Cu 9                   0.26        2.58204
             Cu 10 -- Cu 16                  0.26        2.58204
             Cu 13 -- Cu 16                  0.26        2.58204
             Cu 9  -- Cu 10                  0.26        2.58204
             Cu 15 -- Cu 25                  0.26        2.58204
             Cu 12 -- Cu 26                  0.26        2.58204
             Cu 21 -- Cu 22                  0.26        2.58204
             Cu 9  -- Cu 12                  0.26        2.58204
             Cu 12 -- Cu 17                  0.26        2.58204
             Cu 4  -- Cu 22                  0.26        2.58204
             Cu 3  -- Cu 5                   0.26        2.58204
             Cu 3  -- Cu 17                  0.26        2.58204
             Cu 8  -- Cu 13                  0.26        2.58204
             Cu 5  -- Cu 14                  0.26        2.58204
             Cu 2  -- Cu 8                   0.26        2.58204
             Cu 25 -- Cu 26                  0.26        2.58204
             Cu 6  -- Cu 15                  0.26        2.58204
             Cu 3  -- Cu 18                  0.26        2.58204
             Cu 3  -- Cu 26                  0.26        2.58204
             Cu 5  -- Cu 7                   0.26        2.58204
             Cu 5  -- Cu 6                   0.26        2.58204
             Cu 14 -- Cu 16                  0.26        2.58204
             Cu 11 -- Cu 12                  0.26        2.58204
             Cu 13 -- Cu 15                  0.26        2.58204
             Cu 3  -- Cu 16                  0.26        2.58204
             Cu 14 -- Cu 15                  0.26        2.58204
             Cu 6  -- Cu 8                   0.26        2.58204
             Cu 13 -- Cu 27                  0.26        2.58204
             Cu 12 -- Cu 30                  0.26        2.58204
             Cu 19 -- Cu 32                  0.26        2.58204
             Cu 23 -- Cu 24                  0.26        2.58204
             Cu 22 -- Cu 23                  0.26        2.58204
             Cu 17 -- Cu 23                  0.26        2.58204
             Cu 4  -- Cu 11                  0.26        2.58204
             Cu 4  -- Cu 15                  0.26        2.58204
             Cu 27 -- Cu 28                  0.26        2.58204
             Cu 3  -- Cu 8                   0.26        2.58204
             Cu 20 -- Cu 31                  0.26        2.58204
             Cu 19 -- Cu 24                  0.26        2.58204
             Cu 7  -- Cu 8                   0.26        2.58204
             Cu 5  -- Cu 10                  0.26        2.58204
             Cu 10 -- Cu 27                  0.26        2.58204
             Cu 20 -- Cu 27                  0.26        2.58204
             Cu 21 -- Cu 26                  0.26        2.58204
             Cu 17 -- Cu 20                  0.26        2.58204
             Cu 22 -- Cu 25                  0.26        2.58204
             Cu 21 -- Cu 32                  0.26        2.58204
             Cu 23 -- Cu 30                  0.26        2.58204
             Cu 21 -- Cu 24                  0.26        2.58204
             Cu 2  -- Cu 5                   0.26        2.58204
             Cu 12 -- Cu 15                  0.26        2.58205
             Cu 6  -- Cu 9                   0.26        2.58205
             Cu 23 -- Cu 32                  0.26        2.58205
             Cu 2  -- Cu 27                  0.26        2.58205
             Cu 28 -- Cu 31                  0.26        2.58205
             Cu 9  -- Cu 20                  0.26        2.58205
             Cu 5  -- Cu 19                  0.26        2.58205
             Cu 25 -- Cu 27                  0.26        2.58205
             Cu 17 -- Cu 28                  0.26        2.58205
             Cu 13 -- Cu 32                  0.26        2.58205
             Cu 18 -- Cu 21                  0.26        2.58205
             Cu 7  -- Cu 16                  0.26        2.58205
             Cu 20 -- Cu 22                  0.26        2.58205
             Cu 18 -- Cu 20                  0.26        2.58205
             Cu 5  -- Cu 23                  0.26        2.58205
             Cu 10 -- Cu 32                  0.26        2.58205
             Cu 25 -- Cu 30                  0.26        2.58205
             Cu 26 -- Cu 28                  0.26        2.58205
             Cu 17 -- Cu 19                  0.26        2.58205
             Cu 9  -- Cu 28                  0.26        2.58205
             Cu 25 -- Cu 31                  0.26        2.58205
             Cu 9  -- Cu 14                  0.26        2.58205
             Cu 13 -- Cu 24                  0.26        2.58205
             Cu 19 -- Cu 26                  0.26        2.58205
             Cu 28 -- Cu 30                  0.26        2.58205
             Cu 14 -- Cu 32                  0.26        2.58205
             Cu 6  -- Cu 31                  0.26        2.58205
             Cu 6  -- Cu 24                  0.26        2.58205
             Cu 13 -- Cu 31                  0.26        2.58205
             Cu 2  -- Cu 24                  0.26        2.58205
             Cu 18 -- Cu 19                  0.26        2.58205
             Cu 14 -- Cu 31                  0.26        2.58205
             Cu 10 -- Cu 12                  0.26        2.58210
             Cu 9  -- Cu 11                  0.26        2.58210
             Cu 2  -- Cu 4                   0.26        2.58210
             Cu 6  -- Cu 7                   0.26        2.58210
             Cu 1  -- Cu 3                   0.26        2.58210
             Cu 1  -- Cu 4                   0.26        2.58210
             Cu 4  -- Cu 6                   0.26        2.58210
             Cu 1  -- Cu 12                  0.26        2.58210
             Cu 2  -- Cu 3                   0.26        2.58210
             Cu 1  -- Cu 6                   0.26        2.58210
             Cu 1  -- Cu 7                   0.26        2.58210
             Cu 3  -- Cu 10                  0.26        2.58210
             Cu 12 -- Cu 14                  0.26        2.58210
             Cu 17 -- Cu 22                  0.26        2.58210
             Cu 7  -- Cu 14                  0.26        2.58210
             Cu 3  -- Cu 12                  0.26        2.58210
             Cu 19 -- Cu 28                  0.26        2.58210
             Cu 20 -- Cu 23                  0.26        2.58210
             Cu 4  -- Cu 7                   0.26        2.58210
             Cu 3  -- Cu 4                   0.26        2.58210
             Cu 19 -- Cu 20                  0.26        2.58210
             Cu 1  -- Cu 14                  0.26        2.58210
             Cu 5  -- Cu 16                  0.26        2.58210
             Cu 1  -- Cu 2                   0.26        2.58210
             Cu 23 -- Cu 28                  0.26        2.58210
             Cu 17 -- Cu 30                  0.26        2.58210
             Cu 5  -- Cu 8                   0.26        2.58210
             Cu 9  -- Cu 15                  0.26        2.58210
             Cu 9  -- Cu 27                  0.26        2.58210
             Cu 7  -- Cu 12                  0.26        2.58210
             Cu 1  -- Cu 10                  0.26        2.58210
             Cu 6  -- Cu 23                  0.26        2.58210
             Cu 1  -- Cu 20                  0.26        2.58210
             Cu 6  -- Cu 20                  0.26        2.58210
             Cu 1  -- Cu 28                  0.26        2.58210
             Cu 2  -- Cu 20                  0.26        2.58210
             Cu 10 -- Cu 28                  0.26        2.58210
             Cu 1  -- Cu 19                  0.26        2.58210
             Cu 14 -- Cu 28                  0.26        2.58210
             Cu 17 -- Cu 18                  0.26        2.58210
             Cu 14 -- Cu 23                  0.26        2.58210
             Cu 1  -- Cu 23                  0.26        2.58210
             Cu 10 -- Cu 19                  0.26        2.58210
             Cu 5  -- Cu 32                  0.26        2.58210
             Cu 2  -- Cu 19                  0.26        2.58210
             Cu 5  -- Cu 24                  0.26        2.58210
             Cu 17 -- Cu 26                  0.26        2.58211
             Cu 9  -- Cu 31                  0.26        2.58211
======================================================================
 

Writing analysis data to CuBulk.castep_bin

Writing model to CuBulk.check
 
 A BibTeX formatted list of references used in this run has been written to 
 CuBulk.bib
 
Initialisation time =      9.44 s
Calculation time    =    379.67 s
Finalisation time   =      0.47 s
Total time          =    389.57 s
Peak Memory Use     = 914272 kB
  
Overall parallel efficiency rating: Satisfactory (63%)                          
  
Data was distributed by:-
G-vector (8-way); efficiency rating: Good (71%)                                 
k-point (4-way); efficiency rating: Very good (85%)                             
  
Parallel notes:
1) Calculation only took 389.1 s, so efficiency estimates may be inaccurate.    
