 +-------------------------------------------------+
 |                                                 |
 |      CCC   AA    SSS  TTTTT  EEEEE  PPPP        |
 |     C     A  A  S       T    E      P   P       |
 |     C     AAAA   SS     T    EEE    PPPP        |
 |     C     A  A     S    T    E      P           |
 |      CCC  A  A  SSS     T    EEEEE  P           |
 |                                                 |
 +-------------------------------------------------+
 |                                                 |
 | Welcome to Academic Release CASTEP version 22.1 |          
 | Ab Initio Total Energy Program                  |
 |                                                 |
 | Authors:                                        |
 | M. Segall, M. Probert, C. Pickard, P. Hasnip,   |
 | S. Clark, K. Refson, J. R. Yates, M. Payne      |
 |                                                 |
 | Contributors:                                   |
 | P. Lindan, P. Haynes, J. White, V. Milman,      |
 | N. Govind, M. Gibson, P. Tulip, V. Cocula,      |
 | B. Montanari, D. Quigley, M. Glover,            |
 | L. Bernasconi, A. Perlov, M. Plummer,           |
 | E. McNellis, J. Meyer, J. Gale, D. Jochym       |
 | J. Aarons, B. Walker, R. Gillen, D. Jones       |
 | T. Green, I. J. Bush, C. J. Armstrong,          |
 | E. J. Higgins, E. L. Brown, M. S. McFly,        |
 | J. Wilkins, B-C. Shih, P. J. P. Byrne,          |
 | R. J. Maurer, J. C. Womack, J. Dziedzic,        |
 | A. Bartok-Partay, L. LeBlanc, T. K. Stenczel,   |
 | J. Kermode, S. Sturniolo                        |
 |                                                 |
 | Copyright (c) 2000 - 2021                       |
 |                                                 |
 |     Distributed under license from Cambridge    |
 |     Enterprise for academic use only.           |
 |                                                 |
 | Please cite                                     |
 |                                                 |
 |     "First principles methods using CASTEP"     |
 |                                                 |
 |         Zeitschrift fuer Kristallographie       |
 |           220(5-6) pp. 567-570 (2005)           |
 |                                                 |
 | S. J. Clark, M. D. Segall, C. J. Pickard,       |
 | P. J. Hasnip, M. J. Probert, K. Refson,         |
 | M. C. Payne                                     |
 |                                                 |
 |       in all publications arising from          |
 |              your use of CASTEP                 |
 |                                                 |
 +-------------------------------------------------+
 |                                                 |
 |              http://www.castep.org              |
 |                                                 |
 +-------------------------------------------------+
 
 
 
 Compiled for linux_x86_64_ifort on Wed, 01 Sep 2021 11:26:29 +0100
 from code version 555e1d8+  neb-add-checkfile  Tue Aug 24 18:07:49 2021 +0100
 Compiler: Intel Fortran 18.0.3.222; Optimisation: fast
 MATHLIBS: Intel MKL(2018.0.3) (LAPACK version 3.7.0)
 FFT Lib : default
 Fundamental constants values: CODATA 2014
 
 Run started: Thu, 02 Sep 2021 15:48:35 +0100
 
 Atomic calculation performed for Cu: 1s2 2s2 2p6 3s2 3p6 3d10 4s1
 
 Converged in 145 iterations to an ae energy of -45030.712 eV
 
   ============================================================                
   | Pseudopotential Report - Date of generation  2-09-2021   |                
   ------------------------------------------------------------                
   | Element: Cu Ionic charge: 11.00 Level of theory: PBE     |                
   | Atomic Solver: Koelling-Harmon                           |                
   |                                                          |                
   |               Reference Electronic Structure             |                
   |         Orbital         Occupation         Energy        |                
   |            3d             10.000           -0.185        |                
   |            4s              1.000           -0.169        |                
   |                                                          |                
   |                 Pseudopotential Definition               |                
   |        Beta     l      e      Rc     scheme   norm       |                
   |          1      0   -0.169   1.996     qc      0         |                
   |          2      0    0.250   1.996     qc      0         |                
   |          3      1    0.000   1.996     qc      0         |                
   |          4      1    0.250   1.996     qc      0         |                
   |          5      2   -0.185   1.996     qc      0         |                
   |          6      2    0.250   1.996     qc      0         |                
   |         loc     3    0.000   2.206     pn      0         |                
   |                                                          |                
   | Augmentation charge Rinner = 0.999                       |                
   | Partial core correction Rc = 0.999                       |                
   ------------------------------------------------------------                
   | "3|2.2|2.0|1.0|10|12|13|40:41:32(qc=6)"                  |                
   ------------------------------------------------------------                
   |      Author: Chris J. Pickard, Cambridge University      |                
   ============================================================                
 
 Pseudo atomic calculation performed for Cu 3d10 4s1
 
 Converged in 49 iterations to a total energy of -1676.7355 eV
 Calculation parallelised over 16 processes.
 Data is distributed by G-vector(4-way) and k-point(4-way)

 ************************************ Title ************************************
 

 ***************************** General Parameters ******************************
  
 output verbosity                               : normal  (1)
 write checkpoint data to                       : final.check
 type of calculation                            : geometry optimization
 stress calculation                             : on
 density difference calculation                 : off
 electron localisation func (ELF) calculation   : off
 Hirshfeld analysis                             : off
 polarisation (Berry phase) analysis            : off
 molecular orbital projected DOS                : off
 deltaSCF calculation                           : off
 unlimited duration calculation
 timing information                             : on
 memory usage estimate                          : on
 write extra output files                       : on
 write final potential to formatted file        : off
 write final density to formatted file          : off
 write structure in CELL formatted file         : on
 write BibTeX reference list                    : on
 write OTFG pseudopotential files               : on
 write electrostatic potential file             : on
 write bands file                               : on
 checkpoint writing                             : both castep_bin and check files
  
 output         length unit                     : A
 output           mass unit                     : amu
 output           time unit                     : ps
 output         charge unit                     : e
 output           spin unit                     : hbar/2
 output         energy unit                     : eV
 output          force unit                     : eV/A
 output       velocity unit                     : A/ps
 output       pressure unit                     : GPa
 output     inv_length unit                     : 1/A
 output      frequency unit                     : cm-1
 output force constant unit                     : eV/A**2
 output         volume unit                     : A**3
 output   IR intensity unit                     : (D/A)**2/amu
 output         dipole unit                     : D
 output         efield unit                     : eV/A/e
 output        entropy unit                     : J/mol/K
 output    efield chi2 unit                     : pm/V
  
 wavefunctions paging                           : none
 random number generator seed                   : randomised (154835834)
 data distribution                              : optimal for this architecture
 optimization strategy                          : balance speed and memory

 *********************** Exchange-Correlation Parameters ***********************
  
 using functional                               : Perdew Burke Ernzerhof
 relativistic treatment                         : Koelling-Harmon
 DFT+D: Semi-empirical dispersion correction    : off

 ************************* Pseudopotential Parameters **************************
  
 pseudopotential representation                 : reciprocal space
 <beta|phi> representation                      : reciprocal space
 spin-orbit coupling                            : off

 **************************** Basis Set Parameters *****************************
  
 plane wave basis set cut-off                   :   400.0000   eV
 size of standard grid                          :     1.7500
 size of   fine   gmax                          :    17.9311   1/A
 finite basis set correction                    : none

 **************************** Electronic Parameters ****************************
  
 number of  electrons                           :  341.0    
 net charge of system                           :  0.000    
 net spin   of system                           :  1.000    
 number of  up  spins                           :  171.0    
 number of down spins                           :  170.0    
 treating system as spin-polarized
 number of bands                                :        205

 ********************* Electronic Minimization Parameters **********************
  
 Method: Treating system as metallic with density mixing treatment of electrons,
         and number of  SD  steps               :          1
         and number of  CG  steps               :          4
  
 total energy / atom convergence tol.           : 0.1000E-04   eV
 eigen-energy convergence tolerance             : 0.1000E-05   eV
 max force / atom convergence tol.              : ignored
 convergence tolerance window                   :          3   cycles
 max. number of SCF cycles                      :        100
 number of fixed-spin iterations                :         10
 smearing scheme                                : Gaussian
 smearing width                                 : 0.2000       eV
 Fermi energy convergence tolerance             : 0.2721E-13   eV
 periodic dipole correction                     : NONE

 ************************** Density Mixing Parameters **************************
  
 density-mixing scheme                          : Broyden
 max. length of mixing history                  :         20
 charge density mixing amplitude                : 0.8000    
   spin density mixing amplitude                :  2.000    
 cut-off energy for mixing                      :  400.0       eV

 *********************** Population Analysis Parameters ************************
  
 Population analysis with cutoff                :  3.000       A
 Population analysis output                     : summary and pdos components

 ********************** Geometry Optimization Parameters ***********************
  
 optimization method                            : LBFGS
 max. no. of LBFGS updates                      : unbounded
 variable cell method                           : fixed basis quality
 max. number of steps                           :         30
 estimated bulk modulus                         :  500.0       GPa
 estimated <frequency>                          :  1668.       cm-1
 geom line minimiser                            : on
 with line minimiser tolerance                  :     0.4000
  with spin fully able to relax for all steps
 total energy convergence tolerance             : 0.2000E-04   eV/atom
        max ionic |force| tolerance             : 0.5000E-01   eV/A
 max ionic |displacement| tolerance             : 0.1000E-02   A
   max |stress component| tolerance             : 0.1000       GPa
 convergence tolerance window                   :          2   steps
 backup results every                           :          5   steps
 write geom trajectory file                     : on

 *******************************************************************************
  
 
                           -------------------------------
                                      Unit Cell
                           -------------------------------
        Real Lattice(A)                      Reciprocal Lattice(1/A)
     7.3031241     0.0000000     0.0000000        0.860342127   0.000000000   0.000000000
     0.0000000     7.3031241     0.0000000        0.000000000   0.860342127   0.000000000
     0.0000000     0.0000000     7.3031241        0.000000000   0.000000000   0.860342127
 
                       Lattice parameters(A)       Cell Angles
                    a =      7.303124          alpha =   90.000000
                    b =      7.303124          beta  =   90.000000
                    c =      7.303124          gamma =   90.000000
 
                       Current cell volume =           389.516661       A**3
                                   density =             5.057360   AMU/A**3
                                           =             8.397944     g/cm^3
 
                           -------------------------------
                                     Cell Contents
                           -------------------------------
                         Total number of ions in cell =   31
                      Total number of species in cell =    1
                        Max number of any one species =   31
 
            xxxxxxxxxxxxxxxxxxxxxxxxxxxxxxxxxxxxxxxxxxxxxxxxxxxxxxxxxxxx
            x  Element    Atom        Fractional coordinates of atoms  x
            x            Number           u          v          w      x
            x----------------------------------------------------------x
            x  Cu           1         0.000294   0.000294   0.000000   x 
            x  Cu           2         0.001518   0.250000   0.251518   x 
            x  Cu           3         0.250000   0.001518   0.251518   x 
            x  Cu           4         0.250000   0.250000   1.000000   x 
            x  Cu           5         0.001518   0.001518   0.500000   x 
            x  Cu           6         0.001518   0.250000   0.748482   x 
            x  Cu           7         0.250000   0.001518   0.748482   x 
            x  Cu           8         0.498482   0.498482   0.500000   x 
            x  Cu           9         0.000294   0.499706   0.000000   x 
            x  Cu          10         0.000294   0.750000   0.250294   x 
            x  Cu          11         0.250000   0.498482   0.251518   x 
            x  Cu          12         0.250000   0.750000   0.000000   x 
            x  Cu          13         0.001518   0.498482   0.500000   x 
            x  Cu          14         0.000294   0.750000   0.749706   x 
            x  Cu          15         0.250000   0.498482   0.748482   x 
            x  Cu          16         0.250000   0.750000   0.500000   x 
            x  Cu          17         0.499706   0.000294   0.000000   x 
            x  Cu          18         0.498482   0.250000   0.251518   x 
            x  Cu          19         0.750000   0.000294   0.250294   x 
            x  Cu          20         0.750000   0.250000   1.000000   x 
            x  Cu          21         0.498482   0.001518   0.500000   x 
            x  Cu          22         0.498482   0.250000   0.748482   x 
            x  Cu          23         0.750000   0.000294   0.749706   x 
            x  Cu          24         0.750000   0.250000   0.500000   x 
            x  Cu          25         0.499706   0.499706   0.000000   x 
            x  Cu          26         0.499706   0.750000   0.250294   x 
            x  Cu          27         0.750000   0.499706   0.250294   x 
            x  Cu          28         0.750000   0.750000   0.000000   x 
            x  Cu          29         0.499706   0.750000   0.749706   x 
            x  Cu          30         0.750000   0.499706   0.749706   x 
            x  Cu          31         0.750000   0.750000   0.500000   x 
            xxxxxxxxxxxxxxxxxxxxxxxxxxxxxxxxxxxxxxxxxxxxxxxxxxxxxxxxxxxx
 
 
                         No user defined ionic velocities
 
                           -------------------------------
                                   Details of Species
                           -------------------------------
 
                               Mass of species in AMU
                                    Cu   63.5460000
 
                          Electric Quadrupole Moment (Barn)
                                    Cu   -0.2200000 Isotope 63
 
                          Files used for pseudopotentials:
                                    Cu 3|2.2|2.0|1.0|10|12|13|40:41:32(qc=6)
 
                           -------------------------------
                              k-Points For BZ Sampling
                           -------------------------------
                       MP grid size for SCF calculation is  2  2  2
                            with an offset of   0.000  0.000  0.000
                       Number of kpoints used =             4
 
                           -------------------------------
                               Symmetry and Constraints
                           -------------------------------
 
                      Maximum deviation from symmetry =  0.00000         ANG
 
                      Number of symmetry operations   =           1
                      Number of ionic constraints     =           3
                      Point group of crystal =     1: C1, 1, 1
                      Space group of crystal =   221: Pm-3m, -P 4 2 3
 
             Set iprint > 1 for details on symmetry rotations/translations
 
                         Centre of mass is constrained
             Set iprint > 1 for details of linear ionic constraints
 
                         Number of cell constraints= 6
                         Cell constraints are:  0 0 0 0 0 0
 
                         External pressure/stress (GPa)
                          0.00000   0.00000   0.00000
                                    0.00000   0.00000
                                              0.00000
  
+---------------- MEMORY AND SCRATCH DISK ESTIMATES PER PROCESS --------------+
|                                                     Memory          Disk    |
| Baseline code, static data and system overhead      498.0 MB         0.0 MB |
| BLAS internal memory storage                          0.0 MB         0.0 MB |
| Model and support data                              123.1 MB        59.6 MB |
| Electronic energy minimisation requirements          52.5 MB         0.0 MB |
| Force calculation requirements                        7.4 MB         0.0 MB |
| Stress calculation requirements                       7.4 MB         0.0 MB |
|                                               ----------------------------- |
| Approx. total storage required per process          673.6 MB        59.6 MB |
|                                                                             |
| Requirements will fluctuate during execution and may exceed these estimates |
+-----------------------------------------------------------------------------+
Calculating approximate eigenstates for fixed initial Hamiltonian
Cut-off for approx. calculation is  131.752 eV
Improving approx. states at cut-off of  272.114 eV
Resetting cut-off to  400.000 eV
Calculating total energy with cut-off of  400.000 eV.
------------------------------------------------------------------------ <-- SCF
SCF loop      Energy           Fermi           Energy gain       Timer   <-- SCF
                               energy          per atom          (sec)   <-- SCF
------------------------------------------------------------------------ <-- SCF
Initial  -5.30637423E+004  0.00000000E+000                        16.94  <-- SCF
      1  -5.21029487E+004  4.06240679E+000  -3.09933410E+001      21.71  <-- SCF
      2  -5.21043866E+004  4.10615657E+000   4.63818368E-002      26.69  <-- SCF
      3  -5.21060980E+004  4.28381280E+000   5.52065488E-002      30.98  <-- SCF
      4  -5.21057374E+004  4.00788447E+000  -1.16324565E-002      35.21  <-- SCF
      5  -5.21054975E+004  3.96672211E+000  -7.73694474E-003      39.40  <-- SCF
      6  -5.21058793E+004  4.12388488E+000   1.23151349E-002      43.57  <-- SCF
      7  -5.21052669E+004  4.08092810E+000  -1.97543800E-002      47.73  <-- SCF
      8  -5.21061938E+004  4.04347740E+000   2.98983298E-002      51.88  <-- SCF
      9  -5.21053588E+004  4.03972041E+000  -2.69356657E-002      55.96  <-- SCF
     10  -5.21054082E+004  4.07049981E+000   1.59497034E-003      60.15  <-- SCF
     11  -5.21076771E+004  4.08508466E+000   7.31892525E-002      64.25  <-- SCF
     12  -5.21051933E+004  4.01544004E+000  -8.01206673E-002      68.36  <-- SCF
     13  -5.21062684E+004  4.15535491E+000   3.46800177E-002      72.46  <-- SCF
     14  -5.21051760E+004  4.06765154E+000  -3.52400877E-002      76.53  <-- SCF
     15  -5.21053991E+004  4.01517902E+000   7.19904025E-003      80.60  <-- SCF
     16  -5.21052330E+004  4.04034389E+000  -5.35918249E-003      84.64  <-- SCF
     17  -5.21052598E+004  4.07402103E+000   8.65534134E-004      88.81  <-- SCF
     18  -5.21052379E+004  4.04645518E+000  -7.08556622E-004      92.87  <-- SCF
     19  -5.21052445E+004  4.04388889E+000   2.13084627E-004      97.01  <-- SCF
     20  -5.21052377E+004  4.05187790E+000  -2.17308521E-004     101.17  <-- SCF
     21  -5.21052364E+004  4.04905651E+000  -4.29569849E-005     105.22  <-- SCF
     22  -5.21052385E+004  4.04951864E+000   6.67157140E-005     109.41  <-- SCF
     23  -5.21052363E+004  4.04979773E+000  -6.83870581E-005     112.98  <-- SCF
     24  -5.21052366E+004  4.04941965E+000   6.67732206E-006     115.83  <-- SCF
     25  -5.21052364E+004  4.04935381E+000  -4.51492012E-006     118.69  <-- SCF
------------------------------------------------------------------------ <-- SCF
 
Integrated Spin Density     =    0.558037E-04 hbar/2                        
Integrated |Spin Density|   =    0.663895E-03 hbar/2                        
 
Final energy, E             =  -52104.72238363     eV
Final free energy (E-TS)    =  -52105.23641630     eV
(energies not corrected for finite basis set)
 
NB est. 0K energy (E-0.5TS)      =  -52104.97939997     eV
 

Writing analysis data to final.castep_bin

Writing model to final.check
 
+---------------- MEMORY AND SCRATCH DISK ESTIMATES PER PROCESS --------------+
|                                                     Memory          Disk    |
| Model and support data                              128.3 MB        59.6 MB |
| Electronic energy minimisation requirements          52.5 MB         0.0 MB |
| Geometry minimisation requirements                   65.4 MB         0.0 MB |
|                                               ----------------------------- |
| Approx. total storage required per process          246.1 MB        59.6 MB |
|                                                                             |
| Requirements will fluctuate during execution and may exceed these estimates |
+-----------------------------------------------------------------------------+
 
 
 ************************************** Forces **************************************
 *                                                                                  *
 *                           Cartesian components (eV/A)                            *
 * -------------------------------------------------------------------------------- *
 *                         x                    y                    z              *
 *                                                                                  *
 * Cu              1      0.03994              0.04000              0.00054         *
 * Cu              2     -0.01701              0.00220             -0.01662         *
 * Cu              3      0.00179             -0.01750             -0.01613         *
 * Cu              4      0.00125              0.00227             -0.00045         *
 * Cu              5     -0.01758             -0.01798             -0.00040         *
 * Cu              6     -0.01922              0.00283              0.01734         *
 * Cu              7      0.00246             -0.01880              0.01628         *
 * Cu              8      0.01912              0.02046              0.00095         *
 * Cu              9      0.03969             -0.04019             -0.00020         *
 * Cu             10      0.04085             -0.00304              0.04204         *
 * Cu             11      0.00087              0.01878             -0.01529         *
 * Cu             12      0.00118             -0.00259             -0.00049         *
 * Cu             13     -0.01725              0.01918              0.00029         *
 * Cu             14      0.04007             -0.00382             -0.04196         *
 * Cu             15      0.00147              0.02041              0.01576         *
 * Cu             16      0.00243             -0.00005             -0.00003         *
 * Cu             17     -0.04053              0.03989             -0.00013         *
 * Cu             18      0.01924              0.00122             -0.01671         *
 * Cu             19     -0.00238              0.04030              0.04202         *
 * Cu             20     -0.00209              0.00236             -0.00083         *
 * Cu             21      0.01912             -0.01885              0.00026         *
 * Cu             22      0.02087              0.00185              0.01682         *
 * Cu             23     -0.00300              0.03965             -0.04214         *
 * Cu             24     -0.00107              0.00279              0.00021         *
 * Cu             25     -0.04033             -0.04014             -0.00091         *
 * Cu             26     -0.04106             -0.00211              0.04328         *
 * Cu             27     -0.00136             -0.04063              0.04234         *
 * Cu             28     -0.00166             -0.00257             -0.00118         *
 * Cu             29     -0.04024             -0.00289             -0.04317         *
 * Cu             30     -0.00200             -0.03992             -0.04243         *
 * Cu             31     -0.00358             -0.00311              0.00098         *
 *                                                                                  *
 ************************************************************************************
 LBFGS: finished iteration     0 with enthalpy= -5.21052364E+004 eV
  
 +-----------+-----------------+-----------------+------------+-----+ <-- LBFGS
 | Parameter |      value      |    tolerance    |    units   | OK? | <-- LBFGS
 +-----------+-----------------+-----------------+------------+-----+ <-- LBFGS
 |  dE/ion   |   0.000000E+000 |   2.000000E-005 |         eV | No  | <-- LBFGS
 |  |F|max   |   5.969208E-002 |   5.000000E-002 |       eV/A | No  | <-- LBFGS
 |  |dR|max  |   0.000000E+000 |   1.000000E-003 |          A | No  | <-- LBFGS
 +-----------+-----------------+-----------------+------------+-----+ <-- LBFGS
  

================================================================================
 Starting LBFGS iteration          1 ...
================================================================================
  
 +------------+-------------+-------------+-----------------+ <-- min LBFGS
 |    Step    |   lambda    |   F.delta'  |    enthalpy     | <-- min LBFGS
 +------------+-------------+-------------+-----------------+ <-- min LBFGS
 |  previous  |    0.000000 |    0.058974 |   -52105.236416 | <-- min LBFGS
 +------------+-------------+-------------+-----------------+ <-- min LBFGS
  

--------------------------------------------------------------------------------
 LBFGS: starting iteration         1 with trial guess (lambda=  1.000000)
--------------------------------------------------------------------------------
 
                           -------------------------------
                                     Cell Contents
                           -------------------------------
 
            xxxxxxxxxxxxxxxxxxxxxxxxxxxxxxxxxxxxxxxxxxxxxxxxxxxxxxxxxxxxxxxxx
            x  Element         Atom        Fractional coordinates of atoms  x
            x                 Number           u          v          w      x
            x---------------------------------------------------------------x
            x  Cu                1         0.000302   0.000302   0.000000   x
            x  Cu                2         0.001514   0.250000   0.251514   x
            x  Cu                3         0.250000   0.001514   0.251515   x
            x  Cu                4         0.250000   0.250000   1.000000   x
            x  Cu                5         0.001514   0.001514   0.500000   x
            x  Cu                6         0.001514   0.250001   0.748486   x
            x  Cu                7         0.250001   0.001514   0.748485   x
            x  Cu                8         0.498486   0.498486   0.500000   x
            x  Cu                9         0.000302   0.499698  -0.000000   x
            x  Cu               10         0.000303   0.749999   0.250303   x
            x  Cu               11         0.250000   0.498486   0.251515   x
            x  Cu               12         0.250000   0.749999  -0.000000   x
            x  Cu               13         0.001514   0.498486   0.500000   x
            x  Cu               14         0.000302   0.749999   0.749697   x
            x  Cu               15         0.250000   0.498486   0.748485   x
            x  Cu               16         0.250001   0.750000   0.500000   x
            x  Cu               17         0.499697   0.000302  -0.000000   x
            x  Cu               18         0.498486   0.250000   0.251514   x
            x  Cu               19         0.749999   0.000302   0.250303   x
            x  Cu               20         0.750000   0.250000   1.000000   x
            x  Cu               21         0.498486   0.001514   0.500000   x
            x  Cu               22         0.498486   0.250000   0.748486   x
            x  Cu               23         0.749999   0.000302   0.749697   x
            x  Cu               24         0.750000   0.250001   0.500000   x
            x  Cu               25         0.499698   0.499698  -0.000000   x
            x  Cu               26         0.499697   0.750000   0.250303   x
            x  Cu               27         0.750000   0.499697   0.250303   x
            x  Cu               28         0.750000   0.749999  -0.000000   x
            x  Cu               29         0.499698   0.749999   0.749697   x
            x  Cu               30         0.750000   0.499698   0.749697   x
            x  Cu               31         0.749999   0.749999   0.500000   x
            xxxxxxxxxxxxxxxxxxxxxxxxxxxxxxxxxxxxxxxxxxxxxxxxxxxxxxxxxxxxxxxxx
 
 
------------------------------------------------------------------------ <-- SCF
SCF loop      Energy           Fermi           Energy gain       Timer   <-- SCF
                               energy          per atom          (sec)   <-- SCF
------------------------------------------------------------------------ <-- SCF
Initial  -5.21047100E+004  0.00000000E+000                       122.65  <-- SCF
      1  -5.21052366E+004  4.04955922E+000   1.69859255E-002     125.99  <-- SCF
      2  -5.21052366E+004  4.04955916E+000   4.60987595E-007     128.84  <-- SCF
      3  -5.21052396E+004  4.04896748E+000   9.58028460E-005     132.99  <-- SCF
      4  -5.21052362E+004  4.04940844E+000  -1.09834307E-004     137.10  <-- SCF
      5  -5.21052366E+004  4.04933823E+000   1.21034864E-005     139.96  <-- SCF
      6  -5.21052364E+004  4.04943691E+000  -5.85521111E-006     142.82  <-- SCF
      7  -5.21052364E+004  4.04934027E+000   5.33366705E-007     145.68  <-- SCF
      8  -5.21052364E+004  4.04938198E+000  -7.87684434E-008     148.54  <-- SCF
------------------------------------------------------------------------ <-- SCF
 
Integrated Spin Density     =    0.600806E-05 hbar/2                        
Integrated |Spin Density|   =    0.860816E-04 hbar/2                        
 
Final energy, E             =  -52104.72233887     eV
Final free energy (E-TS)    =  -52105.23639337     eV
(energies not corrected for finite basis set)
 
NB est. 0K energy (E-0.5TS)      =  -52104.97936612     eV
 
 
 ************************************** Forces **************************************
 *                                                                                  *
 *                           Cartesian components (eV/A)                            *
 * -------------------------------------------------------------------------------- *
 *                         x                    y                    z              *
 *                                                                                  *
 * Cu              1      0.03996              0.03994             -0.00005         *
 * Cu              2     -0.01806              0.00165             -0.01640         *
 * Cu              3      0.00165             -0.01803             -0.01644         *
 * Cu              4      0.00216              0.00214             -0.00003         *
 * Cu              5     -0.01804             -0.01802              0.00004         *
 * Cu              6     -0.01792              0.00161              0.01641         *
 * Cu              7      0.00162             -0.01799              0.01643         *
 * Cu              8      0.01957              0.01955             -0.00004         *
 * Cu              9      0.03989             -0.04022              0.00000         *
 * Cu             10      0.03973             -0.00253              0.04223         *
 * Cu             11      0.00176              0.01951             -0.01650         *
 * Cu             12      0.00212             -0.00267             -0.00004         *
 * Cu             13     -0.01802              0.01949             -0.00000         *
 * Cu             14      0.03985             -0.00248             -0.04222         *
 * Cu             15      0.00172              0.01949              0.01649         *
 * Cu             16      0.00208              0.00004              0.00005         *
 * Cu             17     -0.04023              0.03989             -0.00001         *
 * Cu             18      0.01955              0.00176             -0.01647         *
 * Cu             19     -0.00252              0.03981              0.04225         *
 * Cu             20     -0.00268              0.00207              0.00004         *
 * Cu             21      0.01951             -0.01800              0.00001         *
 * Cu             22      0.01943              0.00171              0.01647         *
 * Cu             23     -0.00250              0.03982             -0.04223         *
 * Cu             24      0.00007              0.00208             -0.00005         *
 * Cu             25     -0.04017             -0.04017              0.00003         *
 * Cu             26     -0.04004             -0.00264              0.04212         *
 * Cu             27     -0.00265             -0.04008              0.04213         *
 * Cu             28     -0.00245             -0.00241              0.00007         *
 * Cu             29     -0.04016             -0.00259             -0.04211         *
 * Cu             30     -0.00262             -0.04010             -0.04214         *
 * Cu             31     -0.00263             -0.00261             -0.00005         *
 *                                                                                  *
 ************************************************************************************
  
 +------------+-------------+-------------+-----------------+ <-- min LBFGS
 |    Step    |   lambda    |   F.delta'  |    enthalpy     | <-- min LBFGS
 +------------+-------------+-------------+-----------------+ <-- min LBFGS
 |  previous  |    0.000000 |    0.058974 |   -52105.236416 | <-- min LBFGS
 | trial step |    1.000000 |    0.058646 |   -52105.236393 | <-- min LBFGS
 +------------+-------------+-------------+-----------------+ <-- min LBFGS
  
 LBFGS: WARNING - trial step suggests complex energy landscape
                 in which simple line minimization will fail.
  
               - This is usually an indication that the forces/streses
                 are not accurate enough. Consider making the following changes:
  
                 1) Increase cutoff_energy or basis_precision
                 2) Reduce elec_energy_tol and/or elec_force_tol
                 3) Increase grid_scale
                 4) Increase fine_grid_scale
  
               - Proceeding with a bisection search to find root instead.
  

--------------------------------------------------------------------------------
 LBFGS: improving iteration         1 with bisection search (lambda=  0.500000)
--------------------------------------------------------------------------------
 
                           -------------------------------
                                     Cell Contents
                           -------------------------------
 
            xxxxxxxxxxxxxxxxxxxxxxxxxxxxxxxxxxxxxxxxxxxxxxxxxxxxxxxxxxxxxxxxx
            x  Element         Atom        Fractional coordinates of atoms  x
            x                 Number           u          v          w      x
            x---------------------------------------------------------------x
            x  Cu                1         0.000298   0.000298   0.000000   x
            x  Cu                2         0.001516   0.250000   0.251516   x
            x  Cu                3         0.250000   0.001516   0.251516   x
            x  Cu                4         0.250000   0.250000   1.000000   x
            x  Cu                5         0.001516   0.001516   0.500000   x
            x  Cu                6         0.001516   0.250000   0.748484   x
            x  Cu                7         0.250000   0.001516   0.748484   x
            x  Cu                8         0.498484   0.498484   0.500000   x
            x  Cu                9         0.000298   0.499702  -0.000000   x
            x  Cu               10         0.000298   0.750000   0.250298   x
            x  Cu               11         0.250000   0.498484   0.251516   x
            x  Cu               12         0.250000   0.750000  -0.000000   x
            x  Cu               13         0.001516   0.498484   0.500000   x
            x  Cu               14         0.000298   0.750000   0.749702   x
            x  Cu               15         0.250000   0.498484   0.748484   x
            x  Cu               16         0.250000   0.750000   0.500000   x
            x  Cu               17         0.499702   0.000298  -0.000000   x
            x  Cu               18         0.498484   0.250000   0.251516   x
            x  Cu               19         0.750000   0.000298   0.250298   x
            x  Cu               20         0.750000   0.250000   1.000000   x
            x  Cu               21         0.498484   0.001516   0.500000   x
            x  Cu               22         0.498484   0.250000   0.748484   x
            x  Cu               23         0.750000   0.000298   0.749702   x
            x  Cu               24         0.750000   0.250000   0.500000   x
            x  Cu               25         0.499702   0.499702  -0.000000   x
            x  Cu               26         0.499702   0.750000   0.250299   x
            x  Cu               27         0.750000   0.499702   0.250298   x
            x  Cu               28         0.750000   0.750000  -0.000000   x
            x  Cu               29         0.499702   0.750000   0.749701   x
            x  Cu               30         0.750000   0.499702   0.749702   x
            x  Cu               31         0.750000   0.750000   0.500000   x
            xxxxxxxxxxxxxxxxxxxxxxxxxxxxxxxxxxxxxxxxxxxxxxxxxxxxxxxxxxxxxxxxx
 
 
------------------------------------------------------------------------ <-- SCF
SCF loop      Energy           Fermi           Energy gain       Timer   <-- SCF
                               energy          per atom          (sec)   <-- SCF
------------------------------------------------------------------------ <-- SCF
Initial  -5.21047157E+004  0.00000000E+000                       151.76  <-- SCF
      1  -5.21052364E+004  4.04945083E+000   1.67952691E-002     155.01  <-- SCF
      2  -5.21052364E+004  4.04945083E+000   4.63603363E-008     157.88  <-- SCF
      3  -5.21052364E+004  4.04929701E+000   4.05268491E-008     160.74  <-- SCF
      4  -5.21052364E+004  4.04937584E+000  -2.53399835E-008     163.60  <-- SCF
      5  -5.21052364E+004  4.04945872E+000   7.52477538E-009     166.43  <-- SCF
------------------------------------------------------------------------ <-- SCF
 
Integrated Spin Density     =    0.125666E-05 hbar/2                        
Integrated |Spin Density|   =    0.249193E-04 hbar/2                        
 
Final energy, E             =  -52104.72225661     eV
Final free energy (E-TS)    =  -52105.23635659     eV
(energies not corrected for finite basis set)
 
NB est. 0K energy (E-0.5TS)      =  -52104.97930660     eV
 
 
 ************************************** Forces **************************************
 *                                                                                  *
 *                           Cartesian components (eV/A)                            *
 * -------------------------------------------------------------------------------- *
 *                         x                    y                    z              *
 *                                                                                  *
 * Cu              1      0.04144              0.04143              0.00002         *
 * Cu              2     -0.01872              0.00178             -0.01713         *
 * Cu              3      0.00176             -0.01874             -0.01711         *
 * Cu              4      0.00217              0.00220              0.00000         *
 * Cu              5     -0.01880             -0.01881             -0.00001         *
 * Cu              6     -0.01877              0.00180              0.01715         *
 * Cu              7      0.00178             -0.01876              0.01712         *
 * Cu              8      0.02039              0.02042              0.00003         *
 * Cu              9      0.04140             -0.04176              0.00001         *
 * Cu             10      0.04129             -0.00266              0.04377         *
 * Cu             11      0.00174              0.02028             -0.01710         *
 * Cu             12      0.00213             -0.00274              0.00000         *
 * Cu             13     -0.01879              0.02033              0.00001         *
 * Cu             14      0.04127             -0.00267             -0.04375         *
 * Cu             15      0.00176              0.02033              0.01713         *
 * Cu             16      0.00222              0.00000             -0.00000         *
 * Cu             17     -0.04172              0.04134             -0.00000         *
 * Cu             18      0.02029              0.00176             -0.01713         *
 * Cu             19     -0.00265              0.04125              0.04374         *
 * Cu             20     -0.00273              0.00217             -0.00001         *
 * Cu             21      0.02029             -0.01879              0.00001         *
 * Cu             22      0.02032              0.00177              0.01713         *
 * Cu             23     -0.00266              0.04127             -0.04377         *
 * Cu             24     -0.00001              0.00223              0.00001         *
 * Cu             25     -0.04166             -0.04165             -0.00001         *
 * Cu             26     -0.04156             -0.00266              0.04369         *
 * Cu             27     -0.00265             -0.04155              0.04369         *
 * Cu             28     -0.00248             -0.00250             -0.00002         *
 * Cu             29     -0.04159             -0.00267             -0.04372         *
 * Cu             30     -0.00266             -0.04160             -0.04376         *
 * Cu             31     -0.00279             -0.00278              0.00003         *
 *                                                                                  *
 ************************************************************************************
  
 +------------+-------------+-------------+-----------------+ <-- min LBFGS
 |    Step    |   lambda    |   F.delta'  |    enthalpy     | <-- min LBFGS
 +------------+-------------+-------------+-----------------+ <-- min LBFGS
 |  previous  |    0.000000 |    0.058974 |   -52105.236416 | <-- min LBFGS
 | trial step |    0.500000 |    0.060865 |   -52105.236357 | <-- min LBFGS
 +------------+-------------+-------------+-----------------+ <-- min LBFGS
  

--------------------------------------------------------------------------------
 LBFGS: improving iteration         1 with bisection search (lambda=  0.250000)
--------------------------------------------------------------------------------
 
                           -------------------------------
                                     Cell Contents
                           -------------------------------
 
            xxxxxxxxxxxxxxxxxxxxxxxxxxxxxxxxxxxxxxxxxxxxxxxxxxxxxxxxxxxxxxxxx
            x  Element         Atom        Fractional coordinates of atoms  x
            x                 Number           u          v          w      x
            x---------------------------------------------------------------x
            x  Cu                1         0.000296   0.000296   0.000000   x
            x  Cu                2         0.001517   0.250000   0.251517   x
            x  Cu                3         0.250000   0.001517   0.251517   x
            x  Cu                4         0.250000   0.250000   1.000000   x
            x  Cu                5         0.001517   0.001517   0.500000   x
            x  Cu                6         0.001517   0.250000   0.748483   x
            x  Cu                7         0.250000   0.001517   0.748483   x
            x  Cu                8         0.498483   0.498483   0.500000   x
            x  Cu                9         0.000296   0.499704  -0.000000   x
            x  Cu               10         0.000296   0.750000   0.250296   x
            x  Cu               11         0.250000   0.498483   0.251517   x
            x  Cu               12         0.250000   0.750000  -0.000000   x
            x  Cu               13         0.001517   0.498483   0.500000   x
            x  Cu               14         0.000296   0.750000   0.749704   x
            x  Cu               15         0.250000   0.498483   0.748483   x
            x  Cu               16         0.250000   0.750000   0.500000   x
            x  Cu               17         0.499704   0.000296  -0.000000   x
            x  Cu               18         0.498483   0.250000   0.251517   x
            x  Cu               19         0.750000   0.000296   0.250296   x
            x  Cu               20         0.750000   0.250000   1.000000   x
            x  Cu               21         0.498483   0.001517   0.500000   x
            x  Cu               22         0.498483   0.250000   0.748483   x
            x  Cu               23         0.750000   0.000296   0.749704   x
            x  Cu               24         0.750000   0.250000   0.500000   x
            x  Cu               25         0.499704   0.499704  -0.000000   x
            x  Cu               26         0.499704   0.750000   0.250296   x
            x  Cu               27         0.750000   0.499704   0.250296   x
            x  Cu               28         0.750000   0.750000  -0.000000   x
            x  Cu               29         0.499704   0.750000   0.749704   x
            x  Cu               30         0.750000   0.499704   0.749704   x
            x  Cu               31         0.750000   0.750000   0.500000   x
            xxxxxxxxxxxxxxxxxxxxxxxxxxxxxxxxxxxxxxxxxxxxxxxxxxxxxxxxxxxxxxxxx
 
 
------------------------------------------------------------------------ <-- SCF
SCF loop      Energy           Fermi           Energy gain       Timer   <-- SCF
                               energy          per atom          (sec)   <-- SCF
------------------------------------------------------------------------ <-- SCF
Initial  -5.21047495E+004  0.00000000E+000                       169.65  <-- SCF
      1  -5.21052363E+004  4.04940360E+000   1.57051474E-002     172.89  <-- SCF
      2  -5.21052363E+004  4.04940360E+000   1.40150987E-008     175.75  <-- SCF
      3  -5.21052363E+004  4.04937358E+000   7.64971595E-009     178.60  <-- SCF
      4  -5.21052363E+004  4.04938926E+000  -1.86552638E-009     181.47  <-- SCF
      5  -5.21052363E+004  4.04940533E+000   7.38267045E-010     184.33  <-- SCF
------------------------------------------------------------------------ <-- SCF
 
Integrated Spin Density     =    0.535274E-06 hbar/2                        
Integrated |Spin Density|   =    0.913284E-05 hbar/2                        
 
Final energy, E             =  -52104.72222656     eV
Final free energy (E-TS)    =  -52105.23633783     eV
(energies not corrected for finite basis set)
 
NB est. 0K energy (E-0.5TS)      =  -52104.97928219     eV
 
 
 ************************************** Forces **************************************
 *                                                                                  *
 *                           Cartesian components (eV/A)                            *
 * -------------------------------------------------------------------------------- *
 *                         x                    y                    z              *
 *                                                                                  *
 * Cu              1      0.04102              0.04102              0.00001         *
 * Cu              2     -0.01852              0.00175             -0.01693         *
 * Cu              3      0.00174             -0.01853             -0.01693         *
 * Cu              4      0.00216              0.00218             -0.00001         *
 * Cu              5     -0.01857             -0.01857             -0.00000         *
 * Cu              6     -0.01855              0.00176              0.01695         *
 * Cu              7      0.00175             -0.01854              0.01693         *
 * Cu              8      0.02016              0.02018              0.00001         *
 * Cu              9      0.04096             -0.04133             -0.00000         *
 * Cu             10      0.04090             -0.00263              0.04335         *
 * Cu             11      0.00174              0.02007             -0.01694         *
 * Cu             12      0.00212             -0.00271             -0.00001         *
 * Cu             13     -0.01856              0.02007              0.00000         *
 * Cu             14      0.04088             -0.00264             -0.04334         *
 * Cu             15      0.00175              0.02009              0.01695         *
 * Cu             16      0.00219              0.00001              0.00000         *
 * Cu             17     -0.04132              0.04094             -0.00000         *
 * Cu             18      0.02007              0.00174             -0.01695         *
 * Cu             19     -0.00262              0.04088              0.04334         *
 * Cu             20     -0.00271              0.00214             -0.00001         *
 * Cu             21      0.02005             -0.01857              0.00001         *
 * Cu             22      0.02008              0.00175              0.01695         *
 * Cu             23     -0.00263              0.04088             -0.04335         *
 * Cu             24     -0.00001              0.00220              0.00000         *
 * Cu             25     -0.04125             -0.04124             -0.00001         *
 * Cu             26     -0.04119             -0.00264              0.04330         *
 * Cu             27     -0.00263             -0.04118              0.04330         *
 * Cu             28     -0.00247             -0.00248             -0.00001         *
 * Cu             29     -0.04117             -0.00265             -0.04330         *
 * Cu             30     -0.00264             -0.04118             -0.04331         *
 * Cu             31     -0.00275             -0.00274              0.00001         *
 *                                                                                  *
 ************************************************************************************
  
 +------------+-------------+-------------+-----------------+ <-- min LBFGS
 |    Step    |   lambda    |   F.delta'  |    enthalpy     | <-- min LBFGS
 +------------+-------------+-------------+-----------------+ <-- min LBFGS
 |  previous  |    0.000000 |    0.058974 |   -52105.236416 | <-- min LBFGS
 | trial step |    0.250000 |    0.060263 |   -52105.236338 | <-- min LBFGS
 +------------+-------------+-------------+-----------------+ <-- min LBFGS
  

--------------------------------------------------------------------------------
 LBFGS: improving iteration         1 with bisection search (lambda=  0.125000)
--------------------------------------------------------------------------------
 
                           -------------------------------
                                     Cell Contents
                           -------------------------------
 
            xxxxxxxxxxxxxxxxxxxxxxxxxxxxxxxxxxxxxxxxxxxxxxxxxxxxxxxxxxxxxxxxx
            x  Element         Atom        Fractional coordinates of atoms  x
            x                 Number           u          v          w      x
            x---------------------------------------------------------------x
            x  Cu                1         0.000295   0.000295   0.000000   x
            x  Cu                2         0.001518   0.250000   0.251518   x
            x  Cu                3         0.250000   0.001518   0.251518   x
            x  Cu                4         0.250000   0.250000   1.000000   x
            x  Cu                5         0.001518   0.001518   0.500000   x
            x  Cu                6         0.001517   0.250000   0.748482   x
            x  Cu                7         0.250000   0.001518   0.748482   x
            x  Cu                8         0.498483   0.498483   0.500000   x
            x  Cu                9         0.000295   0.499705  -0.000000   x
            x  Cu               10         0.000295   0.750000   0.250295   x
            x  Cu               11         0.250000   0.498482   0.251518   x
            x  Cu               12         0.250000   0.750000  -0.000000   x
            x  Cu               13         0.001518   0.498483   0.500000   x
            x  Cu               14         0.000295   0.750000   0.749705   x
            x  Cu               15         0.250000   0.498483   0.748482   x
            x  Cu               16         0.250000   0.750000   0.500000   x
            x  Cu               17         0.499705   0.000295  -0.000000   x
            x  Cu               18         0.498483   0.250000   0.251518   x
            x  Cu               19         0.750000   0.000295   0.250295   x
            x  Cu               20         0.750000   0.250000   1.000000   x
            x  Cu               21         0.498483   0.001518   0.500000   x
            x  Cu               22         0.498483   0.250000   0.748482   x
            x  Cu               23         0.750000   0.000295   0.749705   x
            x  Cu               24         0.750000   0.250000   0.500000   x
            x  Cu               25         0.499705   0.499705  -0.000000   x
            x  Cu               26         0.499705   0.750000   0.250295   x
            x  Cu               27         0.750000   0.499705   0.250295   x
            x  Cu               28         0.750000   0.750000  -0.000000   x
            x  Cu               29         0.499705   0.750000   0.749705   x
            x  Cu               30         0.750000   0.499705   0.749705   x
            x  Cu               31         0.750000   0.750000   0.500000   x
            xxxxxxxxxxxxxxxxxxxxxxxxxxxxxxxxxxxxxxxxxxxxxxxxxxxxxxxxxxxxxxxxx
 
 
------------------------------------------------------------------------ <-- SCF
SCF loop      Energy           Fermi           Energy gain       Timer   <-- SCF
                               energy          per atom          (sec)   <-- SCF
------------------------------------------------------------------------ <-- SCF
Initial  -5.21047266E+004  0.00000000E+000                       187.56  <-- SCF
      1  -5.21052363E+004  4.04939216E+000   1.64432934E-002     190.83  <-- SCF
      2  -5.21052363E+004  4.04939216E+000   3.43766196E-009     193.70  <-- SCF
      3  -5.21052363E+004  4.04939072E+000   1.51784831E-009     196.55  <-- SCF
      4  -5.21052363E+004  4.04939224E+000  -2.04774801E-010     199.40  <-- SCF
      5  -5.21052363E+004  4.04939157E+000   1.58071776E-010     202.27  <-- SCF
------------------------------------------------------------------------ <-- SCF
 
Integrated Spin Density     =    0.296185E-06 hbar/2                        
Integrated |Spin Density|   =    0.446582E-05 hbar/2                        
 
Final energy, E             =  -52104.72221085     eV
Final free energy (E-TS)    =  -52105.23632848     eV
(energies not corrected for finite basis set)
 
NB est. 0K energy (E-0.5TS)      =  -52104.97926967     eV
 
 
 ************************************** Forces **************************************
 *                                                                                  *
 *                           Cartesian components (eV/A)                            *
 * -------------------------------------------------------------------------------- *
 *                         x                    y                    z              *
 *                                                                                  *
 * Cu              1      0.04076              0.04076              0.00000         *
 * Cu              2     -0.01840              0.00173             -0.01681         *
 * Cu              3      0.00173             -0.01841             -0.01681         *
 * Cu              4      0.00215              0.00216             -0.00000         *
 * Cu              5     -0.01843             -0.01844             -0.00000         *
 * Cu              6     -0.01842              0.00174              0.01682         *
 * Cu              7      0.00173             -0.01842              0.01681         *
 * Cu              8      0.02002              0.02003              0.00001         *
 * Cu              9      0.04070             -0.04106             -0.00000         *
 * Cu             10      0.04063             -0.00261              0.04308         *
 * Cu             11      0.00173              0.01993             -0.01683         *
 * Cu             12      0.00211             -0.00269             -0.00000         *
 * Cu             13     -0.01843              0.01992              0.00000         *
 * Cu             14      0.04063             -0.00262             -0.04308         *
 * Cu             15      0.00173              0.01995              0.01683         *
 * Cu             16      0.00218              0.00001             -0.00000         *
 * Cu             17     -0.04107              0.04070              0.00000         *
 * Cu             18      0.01994              0.00173             -0.01683         *
 * Cu             19     -0.00261              0.04063              0.04308         *
 * Cu             20     -0.00269              0.00212             -0.00001         *
 * Cu             21      0.01992             -0.01844              0.00000         *
 * Cu             22      0.01995              0.00174              0.01683         *
 * Cu             23     -0.00261              0.04063             -0.04308         *
 * Cu             24      0.00000              0.00218             -0.00000         *
 * Cu             25     -0.04099             -0.04099             -0.00000         *
 * Cu             26     -0.04092             -0.00262              0.04303         *
 * Cu             27     -0.00262             -0.04093              0.04303         *
 * Cu             28     -0.00245             -0.00246             -0.00001         *
 * Cu             29     -0.04093             -0.00263             -0.04303         *
 * Cu             30     -0.00262             -0.04092             -0.04303         *
 * Cu             31     -0.00272             -0.00272              0.00001         *
 *                                                                                  *
 ************************************************************************************
  
 +------------+-------------+-------------+-----------------+ <-- min LBFGS
 |    Step    |   lambda    |   F.delta'  |    enthalpy     | <-- min LBFGS
 +------------+-------------+-------------+-----------------+ <-- min LBFGS
 |  previous  |    0.000000 |    0.058974 |   -52105.236416 | <-- min LBFGS
 | trial step |    0.125000 |    0.059879 |   -52105.236328 | <-- min LBFGS
 +------------+-------------+-------------+-----------------+ <-- min LBFGS
  

--------------------------------------------------------------------------------
 LBFGS: improving iteration         1 with bisection search (lambda=  0.062500)
--------------------------------------------------------------------------------
 
                           -------------------------------
                                     Cell Contents
                           -------------------------------
 
            xxxxxxxxxxxxxxxxxxxxxxxxxxxxxxxxxxxxxxxxxxxxxxxxxxxxxxxxxxxxxxxxx
            x  Element         Atom        Fractional coordinates of atoms  x
            x                 Number           u          v          w      x
            x---------------------------------------------------------------x
            x  Cu                1         0.000295   0.000295   0.000000   x
            x  Cu                2         0.001518   0.250000   0.251518   x
            x  Cu                3         0.250000   0.001518   0.251518   x
            x  Cu                4         0.250000   0.250000   1.000000   x
            x  Cu                5         0.001518   0.001518   0.500000   x
            x  Cu                6         0.001518   0.250000   0.748482   x
            x  Cu                7         0.250000   0.001518   0.748482   x
            x  Cu                8         0.498482   0.498482   0.500000   x
            x  Cu                9         0.000295   0.499705  -0.000000   x
            x  Cu               10         0.000295   0.750000   0.250295   x
            x  Cu               11         0.250000   0.498482   0.251518   x
            x  Cu               12         0.250000   0.750000  -0.000000   x
            x  Cu               13         0.001518   0.498482   0.500000   x
            x  Cu               14         0.000295   0.750000   0.749705   x
            x  Cu               15         0.250000   0.498482   0.748482   x
            x  Cu               16         0.250000   0.750000   0.500000   x
            x  Cu               17         0.499705   0.000295  -0.000000   x
            x  Cu               18         0.498482   0.250000   0.251518   x
            x  Cu               19         0.750000   0.000295   0.250295   x
            x  Cu               20         0.750000   0.250000   1.000000   x
            x  Cu               21         0.498482   0.001518   0.500000   x
            x  Cu               22         0.498482   0.250000   0.748482   x
            x  Cu               23         0.750000   0.000295   0.749705   x
            x  Cu               24         0.750000   0.250000   0.500000   x
            x  Cu               25         0.499705   0.499705  -0.000000   x
            x  Cu               26         0.499705   0.750000   0.250295   x
            x  Cu               27         0.750000   0.499705   0.250295   x
            x  Cu               28         0.750000   0.750000  -0.000000   x
            x  Cu               29         0.499705   0.750000   0.749705   x
            x  Cu               30         0.750000   0.499705   0.749705   x
            x  Cu               31         0.750000   0.750000   0.500000   x
            xxxxxxxxxxxxxxxxxxxxxxxxxxxxxxxxxxxxxxxxxxxxxxxxxxxxxxxxxxxxxxxxx
 
 
------------------------------------------------------------------------ <-- SCF
SCF loop      Energy           Fermi           Energy gain       Timer   <-- SCF
                               energy          per atom          (sec)   <-- SCF
------------------------------------------------------------------------ <-- SCF
Initial  -5.21047222E+004  0.00000000E+000                       205.48  <-- SCF
      1  -5.21052363E+004  4.04939078E+000   1.65855444E-002     208.72  <-- SCF
      2  -5.21052363E+004  4.04939078E+000   8.69394769E-010     211.59  <-- SCF
      3  -5.21052363E+004  4.04939021E+000   2.90995770E-010     214.45  <-- SCF
      4  -5.21052363E+004  4.04939085E+000   1.51685038E-011     217.28  <-- SCF
      5  -5.21052363E+004  4.04939033E+000   2.43494403E-011     220.12  <-- SCF
------------------------------------------------------------------------ <-- SCF
 
Integrated Spin Density     =    0.117910E-06 hbar/2                        
Integrated |Spin Density|   =    0.118062E-05 hbar/2                        
 
Final energy, E             =  -52104.72220103     eV
Final free energy (E-TS)    =  -52105.23632380     eV
(energies not corrected for finite basis set)
 
NB est. 0K energy (E-0.5TS)      =  -52104.97926242     eV
 
 
 ************************************** Forces **************************************
 *                                                                                  *
 *                           Cartesian components (eV/A)                            *
 * -------------------------------------------------------------------------------- *
 *                         x                    y                    z              *
 *                                                                                  *
 * Cu              1      0.04063              0.04063              0.00000         *
 * Cu              2     -0.01835              0.00173             -0.01676         *
 * Cu              3      0.00172             -0.01835             -0.01676         *
 * Cu              4      0.00215              0.00215             -0.00000         *
 * Cu              5     -0.01838             -0.01838             -0.00000         *
 * Cu              6     -0.01835              0.00173              0.01676         *
 * Cu              7      0.00173             -0.01835              0.01676         *
 * Cu              8      0.01996              0.01996              0.00000         *
 * Cu              9      0.04057             -0.04093             -0.00000         *
 * Cu             10      0.04051             -0.00260              0.04295         *
 * Cu             11      0.00173              0.01987             -0.01678         *
 * Cu             12      0.00211             -0.00268             -0.00000         *
 * Cu             13     -0.01837              0.01986              0.00000         *
 * Cu             14      0.04050             -0.00261             -0.04294         *
 * Cu             15      0.00173              0.01988              0.01678         *
 * Cu             16      0.00217              0.00001             -0.00000         *
 * Cu             17     -0.04094              0.04057              0.00000         *
 * Cu             18      0.01987              0.00173             -0.01678         *
 * Cu             19     -0.00260              0.04050              0.04294         *
 * Cu             20     -0.00268              0.00211             -0.00000         *
 * Cu             21      0.01986             -0.01838              0.00000         *
 * Cu             22      0.01988              0.00173              0.01678         *
 * Cu             23     -0.00260              0.04050             -0.04294         *
 * Cu             24      0.00000              0.00217              0.00000         *
 * Cu             25     -0.04086             -0.04086             -0.00000         *
 * Cu             26     -0.04080             -0.00262              0.04289         *
 * Cu             27     -0.00261             -0.04080              0.04289         *
 * Cu             28     -0.00245             -0.00245             -0.00000         *
 * Cu             29     -0.04079             -0.00262             -0.04289         *
 * Cu             30     -0.00262             -0.04080             -0.04290         *
 * Cu             31     -0.00271             -0.00271              0.00000         *
 *                                                                                  *
 ************************************************************************************
  
 +------------+-------------+-------------+-----------------+ <-- min LBFGS
 |    Step    |   lambda    |   F.delta'  |    enthalpy     | <-- min LBFGS
 +------------+-------------+-------------+-----------------+ <-- min LBFGS
 |  previous  |    0.000000 |    0.058974 |   -52105.236416 | <-- min LBFGS
 | trial step |    0.062500 |    0.059690 |   -52105.236324 | <-- min LBFGS
 +------------+-------------+-------------+-----------------+ <-- min LBFGS
  

--------------------------------------------------------------------------------
 LBFGS: improving iteration         1 with bisection search (lambda=  0.031250)
--------------------------------------------------------------------------------
 
                           -------------------------------
                                     Cell Contents
                           -------------------------------
 
            xxxxxxxxxxxxxxxxxxxxxxxxxxxxxxxxxxxxxxxxxxxxxxxxxxxxxxxxxxxxxxxxx
            x  Element         Atom        Fractional coordinates of atoms  x
            x                 Number           u          v          w      x
            x---------------------------------------------------------------x
            x  Cu                1         0.000294   0.000294   0.000000   x
            x  Cu                2         0.001518   0.250000   0.251518   x
            x  Cu                3         0.250000   0.001518   0.251518   x
            x  Cu                4         0.250000   0.250000   1.000000   x
            x  Cu                5         0.001518   0.001518   0.500000   x
            x  Cu                6         0.001518   0.250000   0.748482   x
            x  Cu                7         0.250000   0.001518   0.748482   x
            x  Cu                8         0.498482   0.498482   0.500000   x
            x  Cu                9         0.000294   0.499706  -0.000000   x
            x  Cu               10         0.000294   0.750000   0.250294   x
            x  Cu               11         0.250000   0.498482   0.251518   x
            x  Cu               12         0.250000   0.750000  -0.000000   x
            x  Cu               13         0.001518   0.498482   0.500000   x
            x  Cu               14         0.000294   0.750000   0.749706   x
            x  Cu               15         0.250000   0.498482   0.748482   x
            x  Cu               16         0.250000   0.750000   0.500000   x
            x  Cu               17         0.499706   0.000294  -0.000000   x
            x  Cu               18         0.498482   0.250000   0.251518   x
            x  Cu               19         0.750000   0.000294   0.250294   x
            x  Cu               20         0.750000   0.250000   1.000000   x
            x  Cu               21         0.498482   0.001518   0.500000   x
            x  Cu               22         0.498482   0.250000   0.748482   x
            x  Cu               23         0.750000   0.000294   0.749706   x
            x  Cu               24         0.750000   0.250000   0.500000   x
            x  Cu               25         0.499706   0.499706  -0.000000   x
            x  Cu               26         0.499706   0.750000   0.250294   x
            x  Cu               27         0.750000   0.499706   0.250294   x
            x  Cu               28         0.750000   0.750000  -0.000000   x
            x  Cu               29         0.499706   0.750000   0.749706   x
            x  Cu               30         0.750000   0.499706   0.749706   x
            x  Cu               31         0.750000   0.750000   0.500000   x
            xxxxxxxxxxxxxxxxxxxxxxxxxxxxxxxxxxxxxxxxxxxxxxxxxxxxxxxxxxxxxxxxx
 
 
------------------------------------------------------------------------ <-- SCF
SCF loop      Energy           Fermi           Energy gain       Timer   <-- SCF
                               energy          per atom          (sec)   <-- SCF
------------------------------------------------------------------------ <-- SCF
Initial  -5.21047221E+004  0.00000000E+000                       223.35  <-- SCF
      1  -5.21052363E+004  4.04939006E+000   1.65881289E-002     226.59  <-- SCF
      2  -5.21052363E+004  4.04939006E+000   2.13356981E-010     229.44  <-- SCF
      3  -5.21052363E+004  4.04938980E+000   9.97927880E-011     232.30  <-- SCF
      4  -5.21052363E+004  4.04939013E+000  -3.05365931E-011     235.16  <-- SCF
      5  -5.21052363E+004  4.04938973E+000   1.65656028E-011     238.02  <-- SCF
------------------------------------------------------------------------ <-- SCF
 
Integrated Spin Density     =    0.858796E-07 hbar/2                        
Integrated |Spin Density|   =    0.110862E-05 hbar/2                        
 
Final energy, E             =  -52104.72219645     eV
Final free energy (E-TS)    =  -52105.23632146     eV
(energies not corrected for finite basis set)
 
NB est. 0K energy (E-0.5TS)      =  -52104.97925895     eV
 
 
 ************************************** Forces **************************************
 *                                                                                  *
 *                           Cartesian components (eV/A)                            *
 * -------------------------------------------------------------------------------- *
 *                         x                    y                    z              *
 *                                                                                  *
 * Cu              1      0.04058              0.04057              0.00000         *
 * Cu              2     -0.01832              0.00172             -0.01673         *
 * Cu              3      0.00172             -0.01832             -0.01673         *
 * Cu              4      0.00215              0.00215             -0.00000         *
 * Cu              5     -0.01835             -0.01835             -0.00000         *
 * Cu              6     -0.01832              0.00172              0.01673         *
 * Cu              7      0.00172             -0.01832              0.01673         *
 * Cu              8      0.01993              0.01993              0.00000         *
 * Cu              9      0.04051             -0.04087              0.00000         *
 * Cu             10      0.04045             -0.00260              0.04288         *
 * Cu             11      0.00173              0.01984             -0.01675         *
 * Cu             12      0.00211             -0.00268             -0.00000         *
 * Cu             13     -0.01834              0.01983              0.00000         *
 * Cu             14      0.04045             -0.00260             -0.04288         *
 * Cu             15      0.00173              0.01984              0.01675         *
 * Cu             16      0.00216              0.00001              0.00000         *
 * Cu             17     -0.04088              0.04051             -0.00000         *
 * Cu             18      0.01984              0.00173             -0.01675         *
 * Cu             19     -0.00260              0.04045              0.04288         *
 * Cu             20     -0.00268              0.00211             -0.00000         *
 * Cu             21      0.01983             -0.01834              0.00000         *
 * Cu             22      0.01985              0.00173              0.01675         *
 * Cu             23     -0.00260              0.04045             -0.04288         *
 * Cu             24      0.00001              0.00216             -0.00000         *
 * Cu             25     -0.04080             -0.04080             -0.00000         *
 * Cu             26     -0.04074             -0.00261              0.04283         *
 * Cu             27     -0.00261             -0.04074              0.04283         *
 * Cu             28     -0.00244             -0.00245             -0.00000         *
 * Cu             29     -0.04074             -0.00262             -0.04283         *
 * Cu             30     -0.00261             -0.04074             -0.04283         *
 * Cu             31     -0.00270             -0.00270              0.00000         *
 *                                                                                  *
 ************************************************************************************
  
 +------------+-------------+-------------+-----------------+ <-- min LBFGS
 |    Step    |   lambda    |   F.delta'  |    enthalpy     | <-- min LBFGS
 +------------+-------------+-------------+-----------------+ <-- min LBFGS
 |  previous  |    0.000000 |    0.058974 |   -52105.236416 | <-- min LBFGS
 | trial step |    0.031250 |    0.059602 |   -52105.236321 | <-- min LBFGS
 +------------+-------------+-------------+-----------------+ <-- min LBFGS
  
 LBFGS: WARNING - looks like bisection search has failed?
 LBFGS:         - reverting to earlier configuration and reseting inverse Hessia
 n
 LBFGS: finished iteration     1 with enthalpy= -5.21052364E+004 eV
  
 +-----------+-----------------+-----------------+------------+-----+ <-- LBFGS
 | Parameter |      value      |    tolerance    |    units   | OK? | <-- LBFGS
 +-----------+-----------------+-----------------+------------+-----+ <-- LBFGS
 |  dE/ion   |   0.000000E+000 |   2.000000E-005 |         eV | No  | <-- LBFGS
 |  |F|max   |   5.916971E-002 |   5.000000E-002 |       eV/A | No  | <-- LBFGS
 |  |dR|max  |   2.869724E-006 |   1.000000E-003 |          A | No  | <-- LBFGS
 +-----------+-----------------+-----------------+------------+-----+ <-- LBFGS
  
 LBFGS: WARNING - Repeated consecutive reset of inverse Hessian
 LBFGS:           without satisfying convergence criteria which
[...]
                  3   dn:     0.406   0.247   4.859   0.000   5.512
  Cu              4   up:     0.414   0.285   4.853   0.000   5.552    -0.105        0.000
                  4   dn:     0.414   0.285   4.853   0.000   5.552
  Cu              5   up:     0.406   0.247   4.859   0.000   5.512    -0.023       -0.000
                  5   dn:     0.406   0.247   4.859   0.000   5.512
  Cu              6   up:     0.406   0.247   4.859   0.000   5.512    -0.023       -0.000
                  6   dn:     0.406   0.247   4.859   0.000   5.512
  Cu              7   up:     0.406   0.247   4.859   0.000   5.512    -0.023        0.000
                  7   dn:     0.406   0.247   4.859   0.000   5.512
  Cu              8   up:     0.406   0.246   4.859   0.000   5.511    -0.023        0.000
                  8   dn:     0.406   0.246   4.859   0.000   5.511
  Cu              9   up:     0.393   0.241   4.853   0.000   5.486     0.027       -0.000
                  9   dn:     0.393   0.241   4.853   0.000   5.486
  Cu             10   up:     0.393   0.241   4.853   0.000   5.486     0.027       -0.000
                 10   dn:     0.393   0.241   4.853   0.000   5.486
  Cu             11   up:     0.406   0.246   4.859   0.000   5.512    -0.023       -0.000
                 11   dn:     0.406   0.246   4.859   0.000   5.512
  Cu             12   up:     0.393   0.212   4.854   0.000   5.459     0.082        0.000
                 12   dn:     0.393   0.212   4.854   0.000   5.459
  Cu             13   up:     0.406   0.246   4.859   0.000   5.512    -0.023        0.000
                 13   dn:     0.406   0.246   4.859   0.000   5.512
  Cu             14   up:     0.393   0.241   4.853   0.000   5.486     0.027       -0.000
                 14   dn:     0.393   0.241   4.853   0.000   5.486
  Cu             15   up:     0.406   0.246   4.859   0.000   5.512    -0.023        0.000
                 15   dn:     0.406   0.246   4.859   0.000   5.512
  Cu             16   up:     0.415   0.284   4.853   0.000   5.552    -0.104       -0.000
                 16   dn:     0.414   0.284   4.853   0.000   5.552
  Cu             17   up:     0.393   0.241   4.853   0.000   5.486     0.027        0.000
                 17   dn:     0.393   0.241   4.853   0.000   5.486
  Cu             18   up:     0.406   0.247   4.859   0.000   5.512    -0.023       -0.000
                 18   dn:     0.406   0.247   4.859   0.000   5.512
  Cu             19   up:     0.393   0.241   4.853   0.000   5.486     0.027       -0.000
                 19   dn:     0.393   0.241   4.853   0.000   5.486
  Cu             20   up:     0.393   0.212   4.854   0.000   5.459     0.082       -0.000
                 20   dn:     0.393   0.212   4.854   0.000   5.459
  Cu             21   up:     0.406   0.246   4.859   0.000   5.512    -0.023       -0.000
                 21   dn:     0.406   0.246   4.859   0.000   5.512
  Cu             22   up:     0.406   0.246   4.859   0.000   5.512    -0.023        0.000
                 22   dn:     0.406   0.246   4.859   0.000   5.512
  Cu             23   up:     0.393   0.241   4.853   0.000   5.486     0.027       -0.000
                 23   dn:     0.393   0.241   4.853   0.000   5.486
  Cu             24   up:     0.414   0.285   4.853   0.000   5.552    -0.104        0.000
                 24   dn:     0.414   0.285   4.853   0.000   5.552
  Cu             25   up:     0.393   0.240   4.853   0.000   5.486     0.027       -0.000
                 25   dn:     0.393   0.240   4.853   0.000   5.486
  Cu             26   up:     0.393   0.240   4.853   0.000   5.486     0.028        0.000
                 26   dn:     0.393   0.240   4.853   0.000   5.486
  Cu             27   up:     0.393   0.240   4.853   0.000   5.486     0.028        0.000
                 27   dn:     0.393   0.240   4.853   0.000   5.486
  Cu             28   up:     0.381   0.252   4.858   0.000   5.492     0.016       -0.000
                 28   dn:     0.381   0.252   4.859   0.000   5.492
  Cu             29   up:     0.393   0.240   4.853   0.000   5.486     0.028        0.000
                 29   dn:     0.393   0.240   4.853   0.000   5.486
  Cu             30   up:     0.393   0.240   4.853   0.000   5.486     0.028        0.000
                 30   dn:     0.393   0.240   4.853   0.000   5.486
  Cu             31   up:     0.393   0.212   4.854   0.000   5.459     0.083        0.000
                 31   dn:     0.393   0.212   4.854   0.000   5.459
==============================================================================================
 
                 Bond                   Population        Spin       Length (A)
================================================================================
             Cu 8  -- Cu 15                  0.29        -0.00          2.56933
             Cu 7  -- Cu 21                  0.29         0.00          2.56936
             Cu 6  -- Cu 13                  0.29         0.00          2.56942
             Cu 3  -- Cu 21                  0.29        -0.00          2.56945
             Cu 11 -- Cu 13                  0.29         0.00          2.56945
             Cu 2  -- Cu 13                  0.29        -0.00          2.56947
             Cu 13 -- Cu 15                  0.29         0.00          2.56949
             Cu 8  -- Cu 11                  0.29        -0.00          2.56951
             Cu 8  -- Cu 22                  0.29        -0.00          2.56952
             Cu 2  -- Cu 11                  0.29         0.00          2.56952
             Cu 3  -- Cu 5                   0.29        -0.00          2.56958
             Cu 11 -- Cu 18                  0.29         0.00          2.56964
             Cu 3  -- Cu 18                  0.29         0.00          2.56967
             Cu 2  -- Cu 5                   0.29        -0.00          2.56970
             Cu 5  -- Cu 7                   0.29        -0.00          2.56972
             Cu 8  -- Cu 18                  0.29        -0.00          2.56973
             Cu 18 -- Cu 21                  0.29         0.00          2.56975
             Cu 21 -- Cu 22                  0.29         0.00          2.56977
             Cu 15 -- Cu 22                  0.29        -0.00          2.56983
             Cu 6  -- Cu 15                  0.29         0.00          2.56986
             Cu 5  -- Cu 6                   0.29         0.00          2.56989
             Cu 2  -- Cu 3                   0.29        -0.00          2.56989
             Cu 7  -- Cu 22                  0.29         0.00          2.56993
             Cu 6  -- Cu 7                   0.29        -0.00          2.57032
             Cu 16 -- Cu 26                  0.24         0.00          2.57109
             Cu 16 -- Cu 29                  0.24         0.00          2.57118
             Cu 24 -- Cu 27                  0.24         0.00          2.57120
             Cu 24 -- Cu 30                  0.24         0.00          2.57122
             Cu 4  -- Cu 25                  0.24        -0.00          2.57134
             Cu 4  -- Cu 9                   0.24         0.00          2.57163
             Cu 10 -- Cu 16                  0.24         0.00          2.57166
             Cu 14 -- Cu 16                  0.24        -0.00          2.57175
             Cu 4  -- Cu 17                  0.24         0.00          2.57176
             Cu 19 -- Cu 24                  0.24         0.00          2.57177
             Cu 23 -- Cu 24                  0.24         0.00          2.57178
             Cu 1  -- Cu 4                   0.24         0.00          2.57204
             Cu 29 -- Cu 31                  0.26         0.00          2.58139
             Cu 30 -- Cu 31                  0.26         0.00          2.58146
             Cu 22 -- Cu 24                  0.29        -0.00          2.58159
             Cu 26 -- Cu 31                  0.26         0.00          2.58162
             Cu 15 -- Cu 16                  0.29         0.00          2.58165
             Cu 20 -- Cu 25                  0.26         0.00          2.58168
             Cu 12 -- Cu 25                  0.26         0.00          2.58170
             Cu 27 -- Cu 31                  0.26         0.00          2.58171
             Cu 8  -- Cu 16                  0.29         0.00          2.58173
             Cu 11 -- Cu 16                  0.29         0.00          2.58175
             Cu 18 -- Cu 24                  0.29         0.00          2.58176
             Cu 8  -- Cu 24                  0.29        -0.00          2.58184
             Cu 7  -- Cu 16                  0.29        -0.00          2.58185
             Cu 16 -- Cu 21                  0.29         0.00          2.58188
             Cu 3  -- Cu 16                  0.29        -0.00          2.58195
             Cu 6  -- Cu 24                  0.29         0.00          2.58198
             Cu 9  -- Cu 12                  0.26         0.00          2.58198
             Cu 9  -- Cu 20                  0.26         0.00          2.58200
             Cu 20 -- Cu 30                  0.26         0.00          2.58201
             Cu 23 -- Cu 31                  0.26        -0.00          2.58204
             Cu 20 -- Cu 27                  0.26         0.00          2.58208
             Cu 13 -- Cu 24                  0.29         0.00          2.58209
             Cu 13 -- Cu 16                  0.29         0.00          2.58212
             Cu 14 -- Cu 31                  0.26        -0.00          2.58213
             Cu 12 -- Cu 17                  0.26         0.00          2.58214
             Cu 17 -- Cu 20                  0.26         0.00          2.58214
             Cu 2  -- Cu 24                  0.29         0.00          2.58215
             Cu 12 -- Cu 29                  0.26        -0.00          2.58218
             Cu 21 -- Cu 24                  0.29         0.00          2.58220
             Cu 12 -- Cu 26                  0.26         0.00          2.58220
             Cu 4  -- Cu 11                  0.29         0.00          2.58223
             Cu 4  -- Cu 18                  0.29         0.00          2.58223
             Cu 8  -- Cu 29                  0.24         0.00          2.58224
             Cu 4  -- Cu 15                  0.29        -0.00          2.58225
             Cu 5  -- Cu 16                  0.29        -0.00          2.58226
             Cu 2  -- Cu 4                   0.29         0.00          2.58227
             Cu 19 -- Cu 31                  0.26         0.00          2.58228
             Cu 4  -- Cu 22                  0.29        -0.00          2.58228
             Cu 12 -- Cu 14                  0.26         0.00          2.58231
             Cu 4  -- Cu 6                   0.29        -0.00          2.58232
             Cu 10 -- Cu 12                  0.26        -0.00          2.58233
             Cu 10 -- Cu 31                  0.26         0.00          2.58237
             Cu 1  -- Cu 12                  0.26        -0.00          2.58242
             Cu 13 -- Cu 14                  0.24         0.00          2.58243
             Cu 20 -- Cu 23                  0.26        -0.00          2.58243
             Cu 3  -- Cu 4                   0.29         0.00          2.58245
             Cu 15 -- Cu 29                  0.24         0.00          2.58245
             Cu 5  -- Cu 24                  0.29         0.00          2.58246
             Cu 8  -- Cu 26                  0.24         0.00          2.58246
             Cu 1  -- Cu 20                  0.26        -0.00          2.58247
             Cu 4  -- Cu 7                   0.29        -0.00          2.58247
             Cu 22 -- Cu 30                  0.24         0.00          2.58249
             Cu 21 -- Cu 23                  0.24         0.00          2.58250
             Cu 8  -- Cu 30                  0.24         0.00          2.58250
             Cu 19 -- Cu 20                  0.26         0.00          2.58251
             Cu 10 -- Cu 13                  0.24         0.00          2.58255
             Cu 19 -- Cu 21                  0.24        -0.00          2.58261
             Cu 11 -- Cu 26                  0.24         0.00          2.58265
             Cu 14 -- Cu 15                  0.24        -0.00          2.58266
             Cu 18 -- Cu 27                  0.24        -0.00          2.58269
             Cu 8  -- Cu 27                  0.24        -0.00          2.58274
             Cu 10 -- Cu 11                  0.24        -0.00          2.58275
             Cu 22 -- Cu 23                  0.24        -0.00          2.58276
             Cu 18 -- Cu 19                  0.24        -0.00          2.58285
             Cu 6  -- Cu 9                   0.24         0.00          2.58287
             Cu 6  -- Cu 30                  0.24         0.00          2.58292
             Cu 21 -- Cu 26                  0.24        -0.00          2.58294
             Cu 22 -- Cu 25                  0.24         0.00          2.58294
             Cu 7  -- Cu 17                  0.24         0.00          2.58297
             Cu 21 -- Cu 29                  0.24         0.00          2.58298
             Cu 2  -- Cu 9                   0.24         0.00          2.58302
             Cu 7  -- Cu 29                  0.24        -0.00          2.58304
             Cu 15 -- Cu 25                  0.24        -0.00          2.58305
             Cu 2  -- Cu 27                  0.24         0.00          2.58306
             Cu 3  -- Cu 17                  0.24         0.00          2.58307
             Cu 3  -- Cu 26                  0.24        -0.00          2.58308
             Cu 13 -- Cu 30                  0.24        -0.00          2.58310
             Cu 13 -- Cu 27                  0.24         0.00          2.58310
             Cu 5  -- Cu 19                  0.24         0.00          2.58313
             Cu 5  -- Cu 10                  0.24        -0.00          2.58315
             Cu 18 -- Cu 25                  0.24        -0.00          2.58317
             Cu 5  -- Cu 23                  0.24         0.00          2.58325
             Cu 5  -- Cu 14                  0.24         0.00          2.58330
             Cu 11 -- Cu 25                  0.24        -0.00          2.58331
             Cu 17 -- Cu 18                  0.24         0.00          2.58335
             Cu 17 -- Cu 22                  0.24         0.00          2.58337
             Cu 1  -- Cu 2                   0.24         0.00          2.58337
             Cu 1  -- Cu 3                   0.24         0.00          2.58339
             Cu 9  -- Cu 15                  0.24        -0.00          2.58345
             Cu 1  -- Cu 6                   0.24         0.00          2.58346
             Cu 9  -- Cu 11                  0.24         0.00          2.58347
             Cu 3  -- Cu 10                  0.24        -0.00          2.58351
             Cu 1  -- Cu 7                   0.24        -0.00          2.58353
             Cu 6  -- Cu 23                  0.24        -0.00          2.58355
             Cu 2  -- Cu 19                  0.24        -0.00          2.58358
             Cu 7  -- Cu 14                  0.24        -0.00          2.58359
             Cu 29 -- Cu 30                  0.25         0.00          2.59195
             Cu 25 -- Cu 28                  0.26         0.00          2.59203
             Cu 26 -- Cu 27                  0.25        -0.00          2.59221
             Cu 9  -- Cu 14                  0.25        -0.00          2.59221
             Cu 14 -- Cu 30                  0.25        -0.00          2.59222
             Cu 28 -- Cu 30                  0.26        -0.00          2.59225
             Cu 9  -- Cu 28                  0.26        -0.00          2.59229
             Cu 9  -- Cu 10                  0.25         0.00          2.59232
             Cu 25 -- Cu 29                  0.25         0.00          2.59233
             Cu 17 -- Cu 23                  0.25        -0.00          2.59234
             Cu 23 -- Cu 29                  0.25         0.00          2.59236
             Cu 10 -- Cu 27                  0.25         0.00          2.59236
             Cu 25 -- Cu 30                  0.25         0.00          2.59237
             Cu 17 -- Cu 19                  0.25        -0.00          2.59241
             Cu 28 -- Cu 29                  0.26        -0.00          2.59243
             Cu 19 -- Cu 26                  0.25        -0.00          2.59248
             Cu 17 -- Cu 28                  0.26         0.00          2.59250
             Cu 27 -- Cu 28                  0.26         0.00          2.59252
             Cu 25 -- Cu 26                  0.25         0.00          2.59258
             Cu 25 -- Cu 27                  0.25        -0.00          2.59258
             Cu 14 -- Cu 28                  0.26         0.00          2.59262
             Cu 23 -- Cu 28                  0.26         0.00          2.59267
             Cu 9  -- Cu 27                  0.25         0.00          2.59271
             Cu 26 -- Cu 28                  0.26         0.00          2.59272
             Cu 1  -- Cu 19                  0.25         0.00          2.59273
             Cu 9  -- Cu 30                  0.25        -0.00          2.59274
             Cu 1  -- Cu 28                  0.26         0.00          2.59277
             Cu 1  -- Cu 10                  0.25        -0.00          2.59280
             Cu 17 -- Cu 26                  0.25         0.00          2.59287
             Cu 1  -- Cu 23                  0.25        -0.00          2.59289
             Cu 10 -- Cu 28                  0.26         0.00          2.59290
             Cu 17 -- Cu 29                  0.25        -0.00          2.59291
             Cu 19 -- Cu 28                  0.26         0.00          2.59293
             Cu 1  -- Cu 14                  0.25        -0.00          2.59296
             Cu 14 -- Cu 23                  0.25         0.00          2.59297
             Cu 10 -- Cu 19                  0.25         0.00          2.59298
             Cu 8  -- Cu 31                  0.24         0.00          2.59350
             Cu 20 -- Cu 22                  0.24         0.00          2.59402
             Cu 12 -- Cu 15                  0.24        -0.00          2.59414
             Cu 21 -- Cu 31                  0.24        -0.00          2.59421
             Cu 18 -- Cu 20                  0.24        -0.00          2.59432
             Cu 11 -- Cu 12                  0.24         0.00          2.59441
             Cu 13 -- Cu 31                  0.24         0.00          2.59443
             Cu 6  -- Cu 20                  0.24        -0.00          2.59450
             Cu 7  -- Cu 12                  0.24         0.00          2.59471
             Cu 2  -- Cu 20                  0.24         0.00          2.59491
             Cu 3  -- Cu 12                  0.24        -0.00          2.59493
             Cu 5  -- Cu 31                  0.24         0.00          2.59508
================================================================================
 

Writing analysis data to final.castep_bin

Writing model to final.check
 
 A BibTeX formatted list of references used in this run has been written to 
 final.bib
 
Initialisation time =      6.38 s
Calculation time    =    354.70 s
Finalisation time   =      2.23 s
Total time          =    363.32 s
Peak Memory Use     = 979592 kB
  
Overall parallel efficiency rating: Good (72%)                                  
  
Data was distributed by:-
G-vector (4-way); efficiency rating: Good (73%)                                 
k-point (4-way); efficiency rating: Excellent (97%)                             
  
Parallel notes:
1) Calculation only took 361.1 s, so efficiency estimates may be inaccurate.    
