 +-------------------------------------------------+
 |                                                 |
 |      CCC   AA    SSS  TTTTT  EEEEE  PPPP        |
 |     C     A  A  S       T    E      P   P       |
 |     C     AAAA   SS     T    EEE    PPPP        |
 |     C     A  A     S    T    E      P           |
 |      CCC  A  A  SSS     T    EEEEE  P           |
 |                                                 |
 +-------------------------------------------------+
 |                                                 |
 | Welcome to Academic Release CASTEP version 21.1 |          
 | Ab Initio Total Energy Program                  |
 |                                                 |
 | Authors:                                        |
 | M. Segall, M. Probert, C. Pickard, P. Hasnip,   |
 | S. Clark, K. Refson, J. R. Yates, M. Payne      |
 |                                                 |
 | Contributors:                                   |
 | P. Lindan, P. Haynes, J. White, V. Milman,      |
 | N. Govind, M. Gibson, P. Tulip, V. Cocula,      |
 | B. Montanari, D. Quigley, M. Glover,            |
 | L. Bernasconi, A. Perlov, M. Plummer,           |
 | E. McNellis, J. Meyer, J. Gale, D. Jochym       |
 | J. Aarons, B. Walker, R. Gillen, D. Jones       |
 | T. Green, I. J. Bush, C. J. Armstrong,          |
 | E. J. Higgins, E. L. Brown, M. S. McFly,        |
 | J. Wilkins, B-C. Shih, P. J. P. Byrne,          |
 | R. J. Maurer, J. C. Womack, J. Dziedzic,        |
 | A. Bartok-Partay, L. LeBlanc, T. K. Stenczel    |
 |                                                 |
 | Copyright (c) 2000 - 2020                       |
 |                                                 |
 |     Distributed under license from Cambridge    |
 |     Enterprise for academic use only.           |
 |                                                 |
 | Please cite                                     |
 |                                                 |
 |     "First principles methods using CASTEP"     |
 |                                                 |
 |         Zeitschrift fuer Kristallographie       |
 |           220(5-6) pp. 567-570 (2005)           |
 |                                                 |
 | S. J. Clark, M. D. Segall, C. J. Pickard,       |
 | P. J. Hasnip, M. J. Probert, K. Refson,         |
 | M. C. Payne                                     |
 |                                                 |
 |       in all publications arising from          |
 |              your use of CASTEP                 |
 |                                                 |
 +-------------------------------------------------+
 |                                                 |
 |              http://www.castep.org              |
 |                                                 |
 +-------------------------------------------------+



 Compiled for linux_x86_64_gfortran on Mon, 09 Aug 2021 11:19:58 +0100
 from code version dc9d74321  new-neb-implementation  Mon Aug 9 11:18:34 2021 +0100
 Compiler: GNU Fortran 9.3.0; Optimisation: fast
 MATHLIBS: default (LAPACK version 3.9.0)
 FFT Lib : default
 Fundamental constants values: CODATA 2014

 Run started: Mon, 09 Aug 2021 17:14:42 +0100

 Atomic calculation performed for Al: 1s2 2s2 2p6 3s2 3p1

 Converged in 54 iterations to an ae energy of -6603.783 eV

   ============================================================                
   | Pseudopotential Report - Date of generation  9-08-2021   |                
   ------------------------------------------------------------                
   | Element: Al Ionic charge:  3.00 Level of theory: PBE     |                
   | Atomic Solver: Koelling-Harmon                           |                
   |                                                          |                
   |               Reference Electronic Structure             |                
   |         Orbital         Occupation         Energy        |                
   |            3s              2.000           -0.285        |                
   |            3p              1.000           -0.100        |                
   |                                                          |                
   |                 Pseudopotential Definition               |                
   |        Beta     l      e      Rc     scheme   norm       |                
   |          1      0   -0.285   2.192     qc      0         |                
   |          2      0    0.250   2.192     qc      0         |                
   |          3      1   -0.100   2.192     qc      0         |                
   |          4      1    0.250   2.192     qc      0         |                
   |          5      2    0.000   2.000     qc      0         |                
   |          6      2    0.250   2.000     qc      0         |                
   |         loc     3    0.000   2.192     pn      0         |                
   |                                                          |                
   | Augmentation charge Rinner = 1.398                       |                
   | Partial core correction Rc = 1.398                       |                
   ------------------------------------------------------------                
   | "3|2.2|2.2|1.4|4|5|5|30:31:32U2U2"                       |                
   ------------------------------------------------------------                
   |      Author: Chris J. Pickard, Cambridge University      |                
   ============================================================                

 Atomic calculation performed for Au:
 1s2 2s2 2p6 3s2 3p6 3d10 4s2 4p6 4d10 4f14 5s2 5p6 5d10 6s1

 Converged in 92 iterations to an ae energy of -517336.889 eV

   ============================================================                
   | Pseudopotential Report - Date of generation  9-08-2021   |                
   ------------------------------------------------------------                
   | Element: Au Ionic charge: 33.00 Level of theory: PBE     |                
   | Atomic Solver: Koelling-Harmon                           |                
   |                                                          |                
   |               Reference Electronic Structure             |                
   |         Orbital         Occupation         Energy        |                
   |            5s              2.000           -3.982        |                
   |            4f             14.000           -2.981        |                
   |            5p              6.000           -2.197        |                
   |            5d             10.000           -0.253        |                
   |            6s              1.000           -0.212        |                
   |                                                          |                
   |                 Pseudopotential Definition               |                
   |        Beta     l      e      Rc     scheme   norm       |                
   |          1      0   -3.982   2.392     qc      0         |                
   |          2      0   -0.212   2.392     qc      0         |                
   |          3      0    0.250   2.392     qc      0         |                
   |          4      1   -2.197   2.392     qc      0         |                
   |          5      1    0.250   2.392     qc      0         |                
   |          6      2   -0.253   2.392     qc      0         |                
   |          7      2    0.250   2.392     qc      0         |                
   |          8      3   -2.981   2.392     qc      0         |                
   |          9      3    0.250   2.392     qc      0         |                
   |         loc     3    0.000   2.392     pn      0         |                
   |                                                          |                
   | Augmentation charge Rinner = 1.686                       |                
   | Partial core correction Rc = 1.686                       |                
   ------------------------------------------------------------                
   | "3|2.4|9|10|11|50U:60:51:52:43(qc=6)"                    |                
   ------------------------------------------------------------                
   |      Author: Chris J. Pickard, Cambridge University      |                
   ============================================================                

 Pseudo atomic calculation performed for Al 3s2 3p1

 Converged in 14 iterations to a total energy of -107.1295 eV

 Pseudo atomic calculation performed for Au 4f14 5s2 5p6 5d10 6s1

 Converged in 24 iterations to a total energy of -14121.4440 eV
 Calculation not parallelised.

 ************************************ Title ************************************
 

 ***************************** General Parameters ******************************
  
 output verbosity                               : normal  (1)
 write checkpoint data to                       : AlAu.check
 type of calculation                            : single point energy
 stress calculation                             : off
 density difference calculation                 : off
 electron localisation func (ELF) calculation   : off
 Hirshfeld analysis                             : off
 polarisation (Berry phase) analysis            : off
 molecular orbital projected DOS                : off
 deltaSCF calculation                           : off
 unlimited duration calculation
 timing information                             : on
 memory usage estimate                          : on
 write extra output files                       : on
 write final potential to formatted file        : off
 write final density to formatted file          : off
 write BibTeX reference list                    : on
 write OTFG pseudopotential files               : on
 write electrostatic potential file             : on
 write bands file                               : on
 checkpoint writing                             : both castep_bin and check files
  
 output         length unit                     : A
 output           mass unit                     : amu
 output           time unit                     : ps
 output         charge unit                     : e
 output           spin unit                     : hbar/2
 output         energy unit                     : eV
 output          force unit                     : eV/A
 output       velocity unit                     : A/ps
 output       pressure unit                     : GPa
 output     inv_length unit                     : 1/A
 output      frequency unit                     : cm-1
 output force constant unit                     : eV/A**2
 output         volume unit                     : A**3
 output   IR intensity unit                     : (D/A)**2/amu
 output         dipole unit                     : D
 output         efield unit                     : eV/A/e
 output        entropy unit                     : J/mol/K
 output    efield chi2 unit                     : pm/V
  
 wavefunctions paging                           : none
 random number generator seed                   : randomised (171442327)
 data distribution                              : optimal for this architecture
 optimization strategy                          : balance speed and memory

 *********************** Exchange-Correlation Parameters ***********************
  
 using functional                               : Perdew Burke Ernzerhof
 relativistic treatment                         : Koelling-Harmon
 DFT+D: Semi-empirical dispersion correction    : off

 ************************* Pseudopotential Parameters **************************
  
 pseudopotential representation                 : reciprocal space
 <beta|phi> representation                      : reciprocal space
 spin-orbit coupling                            : off

 **************************** Basis Set Parameters *****************************
  
 basis set accuracy                             : FINE
 plane wave basis set cut-off                   :   299.3252   eV
 size of standard grid                          :     1.7500
 size of   fine   gmax                          :    15.5113   1/A
 finite basis set correction                    : none

 **************************** Electronic Parameters ****************************
  
 number of  electrons                           :  69.00    
 net charge of system                           :  0.000    
 net spin   of system                           :  1.000    
 number of  up  spins                           :  35.00    
 number of down spins                           :  34.00    
 treating system as spin-polarized
 number of bands                                :         42

 ********************* Electronic Minimization Parameters **********************
  
 Method: Treating system as metallic with density mixing treatment of electrons,
         and number of  SD  steps               :          1
         and number of  CG  steps               :          4
  
 total energy / atom convergence tol.           : 0.1000E-04   eV
 eigen-energy convergence tolerance             : 0.1000E-05   eV
 max force / atom convergence tol.              : ignored
 convergence tolerance window                   :          3   cycles
 max. number of SCF cycles                      :        100
 number of fixed-spin iterations                :         10
 smearing scheme                                : Gaussian
 smearing width                                 : 0.2000       eV
 Fermi energy convergence tolerance             : 0.2721E-13   eV
 periodic dipole correction                     : NONE

 ************************** Density Mixing Parameters **************************
  
 density-mixing scheme                          : Broyden
 max. length of mixing history                  :         20
 charge density mixing amplitude                : 0.8000    
   spin density mixing amplitude                :  2.000    

 *********************** Population Analysis Parameters ************************
  
 Population analysis with cutoff                :  3.000       A
 Population analysis output                     : summary and pdos components

 *******************************************************************************
  

                           -------------------------------
                                      Unit Cell
                           -------------------------------
        Real Lattice(A)                      Reciprocal Lattice(1/A)
     5.7275650     0.0000000     0.0000000        1.097008119   0.000000000   0.000000000
     0.0000000     5.7275650     0.0000000        0.000000000   1.097008119   0.000000000
     0.0000000     0.0000000    13.7500000        0.000000000   0.000000000   0.456958931

                       Lattice parameters(A)       Cell Angles
                    a =      5.727565          alpha =   90.000000
                    b =      5.727565          beta  =   90.000000
                    c =     13.750000          gamma =   90.000000

                       Current cell volume =           451.068761       A**3
                                   density =             1.154469   AMU/A**3
                                           =             1.917041     g/cm^3

                           -------------------------------
                                     Cell Contents
                           -------------------------------
                         Total number of ions in cell =   13
                      Total number of species in cell =    2
                        Max number of any one species =   12

            xxxxxxxxxxxxxxxxxxxxxxxxxxxxxxxxxxxxxxxxxxxxxxxxxxxxxxxxxxxx
            x  Element    Atom        Fractional coordinates of atoms  x
            x            Number           u          v          w      x
            x----------------------------------------------------------x
            x  Al           1         0.000000   0.000000   0.290909   x 
            x  Al           2         0.500000   0.000000   0.290909   x 
            x  Al           3         0.000000   0.500000   0.290909   x 
            x  Al           4         0.500000   0.500000   0.290909   x 
            x  Al           5         0.250000   0.250000   0.438182   x 
            x  Al           6         0.750000   0.250000   0.438182   x 
            x  Al           7         0.250000   0.750000   0.438182   x 
            x  Al           8         0.750000   0.750000   0.438182   x 
            x  Al           9         0.000000   0.000000   0.585455   x 
            x  Al          10         0.500000   0.000000   0.585455   x 
            x  Al          11         0.000000   0.500000   0.585455   x 
            x  Al          12         0.500000   0.500000   0.585455   x 
            x  Au           1         0.250000   0.250000   0.709091   x 
            xxxxxxxxxxxxxxxxxxxxxxxxxxxxxxxxxxxxxxxxxxxxxxxxxxxxxxxxxxxx


                         No user defined ionic velocities

                           -------------------------------
                                   Details of Species
                           -------------------------------

                               Mass of species in AMU
                                    Al   26.9815400
                                    Au  196.9665500

                          Electric Quadrupole Moment (Barn)
                                    Al    0.1466000 Isotope 27
                                    Au    0.5470000 Isotope197

                          Files used for pseudopotentials:
                                    Al 3|2.2|2.2|1.4|4|5|5|30:31:32U2U2
                                    Au 3|2.4|9|10|11|50U:60:51:52:43(qc=6)

                           -------------------------------
                              k-Points For BZ Sampling
                           -------------------------------
                       MP grid size for SCF calculation is  2  2  1
                            with an offset of   0.000  0.000  0.000
                       Number of kpoints used =             2

                           -------------------------------
                               Symmetry and Constraints
                           -------------------------------

                      Maximum deviation from symmetry =  0.00000         ANG

                      Number of symmetry operations   =           1
                      Number of ionic constraints     =           3
                      Point group of crystal =     1: C1, 1, 1
                      Space group of crystal =    99: P4mm, P 4 -2

             Set iprint > 1 for details on symmetry rotations/translations

                         Centre of mass is constrained
             Set iprint > 1 for details of linear ionic constraints

                         Number of cell constraints= 0
                         Cell constraints are:  1 2 3 4 5 6

                         External pressure/stress (GPa)
                          0.00000   0.00000   0.00000
                                    0.00000   0.00000
                                              0.00000
                    k-Points For SCF Sampling:           2
             +++++++++++++++++++++++++++++++++++++++++++++++++++++++
             +  Number       Fractional coordinates        Weight  +
             +-----------------------------------------------------+
             +     1  -0.250000  -0.250000   0.000000   0.5000000  +
             +     2   0.250000  -0.250000   0.000000   0.5000000  +
             +++++++++++++++++++++++++++++++++++++++++++++++++++++++

  
+---------------- MEMORY AND SCRATCH DISK ESTIMATES PER PROCESS --------------+
|                                                     Memory          Disk    |
| Baseline code, static data and system overhead      238.0 MB         0.0 MB |
| BLAS internal memory storage                          0.0 MB         0.0 MB |
| Model and support data                              636.8 MB       734.5 MB |
| Electronic energy minimisation requirements          37.8 MB         0.0 MB |
| Force calculation requirements                       14.3 MB         0.0 MB |
|                                               ----------------------------- |
| Approx. total storage required per process          912.6 MB       734.5 MB |
|                                                                             |
| Requirements will fluctuate during execution and may exceed these estimates |
+-----------------------------------------------------------------------------+

            Bond                    Length (A)
==================================================
        Al 9  -- Au 1                2.64398
        Al 10 -- Au 1                2.64398
        Al 11 -- Au 1                2.64398
        Al 12 -- Au 1                2.64398
        Al 1  -- Al 2                2.86378
        Al 1  -- Al 3                2.86378
        Al 9  -- Al 10               2.86378
        Al 9  -- Al 11               2.86378
        Al 10 -- Al 12               2.86378
        Al 11 -- Al 12               2.86378
        Al 3  -- Al 4                2.86378
        Al 2  -- Al 4                2.86378
        Al 7  -- Al 8                2.86378
        Al 5  -- Al 6                2.86378
        Al 5  -- Al 7                2.86378
        Al 6  -- Al 8                2.86378
        Al 2  -- Al 5                2.86378
        Al 4  -- Al 5                2.86378
        Al 1  -- Al 6                2.86378
        Al 1  -- Al 7                2.86378
        Al 2  -- Al 7                2.86378
        Al 3  -- Al 5                2.86378
        Al 3  -- Al 6                2.86378
        Al 1  -- Al 5                2.86378
        Al 5  -- Al 9                2.86378
        Al 1  -- Al 8                2.86378
        Al 5  -- Al 10               2.86378
        Al 5  -- Al 11               2.86378
        Al 5  -- Al 12               2.86378
        Al 6  -- Al 9                2.86378
        Al 7  -- Al 9                2.86378
        Al 7  -- Al 10               2.86378
        Al 6  -- Al 11               2.86378
        Al 8  -- Al 9                2.86378
        Al 4  -- Al 6                2.86378
        Al 3  -- Al 7                2.86378
        Al 2  -- Al 6                2.86378
        Al 4  -- Al 7                2.86378
        Al 3  -- Al 8                2.86378
        Al 2  -- Al 8                2.86378
        Al 7  -- Al 12               2.86378
        Al 6  -- Al 10               2.86378
        Al 6  -- Al 12               2.86378
        Al 7  -- Al 11               2.86378
        Al 8  -- Al 10               2.86378
        Al 8  -- Al 11               2.86378
        Al 4  -- Al 8                2.86378
        Al 8  -- Al 12               2.86378
==================================================

  
             +-------------------------------------------------+
             |                                                 |
             |       DRYRUN finished ...                       |
             |       No problems found with input files.       |
             |                                                 |
             +-------------------------------------------------+
  
