 +-------------------------------------------------+
 |                                                 |
 |      CCC   AA    SSS  TTTTT  EEEEE  PPPP        |
 |     C     A  A  S       T    E      P   P       |
 |     C     AAAA   SS     T    EEE    PPPP        |
 |     C     A  A     S    T    E      P           |
 |      CCC  A  A  SSS     T    EEEEE  P           |
 |                                                 |
 +-------------------------------------------------+
 |                                                 |
 | Welcome to Academic Release CASTEP version 22.1 |          
 | Ab Initio Total Energy Program                  |
 |                                                 |
 | Authors:                                        |
 | M. Segall, M. Probert, C. Pickard, P. Hasnip,   |
 | S. Clark, K. Refson, J. R. Yates, M. Payne      |
 |                                                 |
 | Contributors:                                   |
 | P. Lindan, P. Haynes, J. White, V. Milman,      |
 | N. Govind, M. Gibson, P. Tulip, V. Cocula,      |
 | B. Montanari, D. Quigley, M. Glover,            |
 | L. Bernasconi, A. Perlov, M. Plummer,           |
 | E. McNellis, J. Meyer, J. Gale, D. Jochym       |
 | J. Aarons, B. Walker, R. Gillen, D. Jones       |
 | T. Green, I. J. Bush, C. J. Armstrong,          |
 | E. J. Higgins, E. L. Brown, M. S. McFly,        |
 | J. Wilkins, B-C. Shih, P. J. P. Byrne,          |
 | R. J. Maurer, J. C. Womack, J. Dziedzic,        |
 | A. Bartok-Partay, L. LeBlanc, T. K. Stenczel,   |
 | J. Kermode, S. Sturniolo                        |
 |                                                 |
 | Copyright (c) 2000 - 2021                       |
 |                                                 |
 |     Distributed under license from Cambridge    |
 |     Enterprise for academic use only.           |
 |                                                 |
 | Please cite                                     |
 |                                                 |
 |     "First principles methods using CASTEP"     |
 |                                                 |
 |         Zeitschrift fuer Kristallographie       |
 |           220(5-6) pp. 567-570 (2005)           |
 |                                                 |
 | S. J. Clark, M. D. Segall, C. J. Pickard,       |
 | P. J. Hasnip, M. J. Probert, K. Refson,         |
 | M. C. Payne                                     |
 |                                                 |
 |       in all publications arising from          |
 |              your use of CASTEP                 |
 |                                                 |
 +-------------------------------------------------+
 |                                                 |
 |              http://www.castep.org              |
 |                                                 |
 +-------------------------------------------------+
 
 
 
 Compiled for linux_x86_64_cray-XT on Thu, 18 Nov 2021 16:26:02 +0000
 from code version cb551d6e8+  new-neb-implementation  Wed Nov 17 12:19:37 2021 +00
 Compiler: Cray Fortran 10.0.4; Optimisation: fast
 MATHLIBS: LibSci (LAPACK version 3.6.1)
 FFT Lib : default
 Fundamental constants values: CODATA 2014
 
 Run started: Fri, 19 Nov 2021 14:10:56 +0000
 
 Atomic calculation performed for Cu: 1s2 2s2 2p6 3s2 3p6 3d10 4s1
 
 Converged in 144 iterations to an ae energy of -45030.712 eV
 
   ============================================================                
   | Pseudopotential Report - Date of generation 19-11-2021   |                
   ------------------------------------------------------------                
   | Element: Cu Ionic charge: 11.00 Level of theory: PBE     |                
   | Atomic Solver: Koelling-Harmon                           |                
   |                                                          |                
   |               Reference Electronic Structure             |                
   |         Orbital         Occupation         Energy        |                
   |            3d             10.000           -0.185        |                
   |            4s              1.000           -0.169        |                
   |                                                          |                
   |                 Pseudopotential Definition               |                
   |        Beta     l      e      Rc     scheme   norm       |                
   |          1      0   -0.169   1.996     qc      0         |                
   |          2      0    0.250   1.996     qc      0         |                
   |          3      1    0.000   1.996     qc      0         |                
   |          4      1    0.250   1.996     qc      0         |                
   |          5      2   -0.185   1.996     qc      0         |                
   |          6      2    0.250   1.996     qc      0         |                
   |         loc     3    0.000   2.206     pn      0         |                
   |                                                          |                
   | Augmentation charge Rinner = 0.999                       |                
   | Partial core correction Rc = 0.999                       |                
   ------------------------------------------------------------                
   | "3|2.2|2.0|1.0|10|12|13|40:41:32(qc=6)"                  |                
   ------------------------------------------------------------                
   |      Author: Chris J. Pickard, Cambridge University      |                
   ============================================================                
 
 Pseudo atomic calculation performed for Cu 3d10 4s1
 
 Converged in 49 iterations to a total energy of -1676.8614 eV
 Calculation parallelised over 8 processes.
 Data is distributed by k-point(8-way)

 ************************************ Title ************************************
 

 ***************************** General Parameters ******************************
  
 output verbosity                               : normal  (1)
 write checkpoint data to                       : initial.check
 type of calculation                            : transition state search
 stress calculation                             : off
 density difference calculation                 : off
 electron localisation func (ELF) calculation   : off
 Hirshfeld analysis                             : off
 polarisation (Berry phase) analysis            : off
 molecular orbital projected DOS                : off
 deltaSCF calculation                           : off
 unlimited duration calculation
 timing information                             : on
 memory usage estimate                          : on
 write extra output files                       : on
 write final potential to formatted file        : off
 write final density to formatted file          : off
 write BibTeX reference list                    : on
 write OTFG pseudopotential files               : on
 write electrostatic potential file             : on
 write bands file                               : on
 checkpoint writing                             : both castep_bin and check files
  
 output         length unit                     : A
 output           mass unit                     : amu
 output           time unit                     : ps
 output         charge unit                     : e
 output           spin unit                     : hbar/2
 output         energy unit                     : eV
 output          force unit                     : eV/A
 output       velocity unit                     : A/ps
 output       pressure unit                     : GPa
 output     inv_length unit                     : 1/A
 output      frequency unit                     : cm-1
 output force constant unit                     : eV/A**2
 output         volume unit                     : A**3
 output   IR intensity unit                     : (D/A)**2/amu
 output         dipole unit                     : D
 output         efield unit                     : eV/A/e
 output        entropy unit                     : J/mol/K
 output    efield chi2 unit                     : pm/V
  
 wavefunctions paging                           : none
 random number generator seed                   : randomised (141056757)
 data distribution                              : optimal for this architecture
 optimization strategy                          : balance speed and memory

 *********************** Exchange-Correlation Parameters ***********************
  
 using functional                               : Perdew Burke Ernzerhof
 relativistic treatment                         : Koelling-Harmon
 DFT+D: Semi-empirical dispersion correction    : off

 ************************* Pseudopotential Parameters **************************
  
 pseudopotential representation                 : reciprocal space
 <beta|phi> representation                      : reciprocal space
 spin-orbit coupling                            : off

 **************************** Basis Set Parameters *****************************
  
 plane wave basis set cut-off                   :   500.0000   eV
 size of standard grid                          :     1.7500
 size of   fine   gmax                          :    20.0476   1/A
 finite basis set correction                    : none

 **************************** Electronic Parameters ****************************
  
 number of  electrons                           :  341.0    
 net charge of system                           :  0.000    
 net spin   of system                           :  1.000    
 number of  up  spins                           :  171.0    
 number of down spins                           :  170.0    
 treating system as spin-polarized
 number of bands                                :        205

 ********************* Electronic Minimization Parameters **********************
  
 Method: Treating system as metallic with density mixing treatment of electrons,
         and number of  SD  steps               :          1
         and number of  CG  steps               :          4
  
 total energy / atom convergence tol.           : 0.1000E-04   eV
 eigen-energy convergence tolerance             : 0.1000E-05   eV
 max force / atom convergence tol.              : ignored
 convergence tolerance window                   :          3   cycles
 max. number of SCF cycles                      :        200
 number of fixed-spin iterations                :         10
 smearing scheme                                : Gaussian
 smearing width                                 : 0.2000       eV
 Fermi energy convergence tolerance             : 0.2721E-13   eV
 periodic dipole correction                     : NONE

 ************************** Density Mixing Parameters **************************
  
 density-mixing scheme                          : Broyden
 max. length of mixing history                  :         20
 charge density mixing amplitude                : 0.5000    
   spin density mixing amplitude                :  2.000    
 cut-off energy for mixing                      :  500.0       eV

 *********************** Population Analysis Parameters ************************
  
 Population analysis with cutoff                :  3.000       A
 Population analysis output                     : summary and pdos components

 ********************* Transition State Search Parameters **********************
  
 search method                                  : NEB   
 max. ionic |force| tolerance                   : 0.5000E-01   eV/A
 max. ionic |displacement| tolerance            : 0.1000E-02   A
 max. ionic |energy| tolerance                  : 0.2000E-04   eV
 NEB method                                     : ODE12R    
 max. number of NEB iterations                  :          1
 max. number of path points                     :          1
 inter-bead spring constant                     : 0.1000E+00   eV/A**2
 tangent mode                                   : SPLINE    
 central bead is                                : sliding down

 *******************************************************************************
  
 
                           -------------------------------
                                      Unit Cell
                           -------------------------------
        Real Lattice(A)                      Reciprocal Lattice(1/A)
     7.2533590     0.0000000     0.0000000        0.866244909   0.000000000   0.000000000
     0.0000000     7.2533590     0.0000000        0.000000000   0.866244909   0.000000000
     0.0000000     0.0000000     7.2533590        0.000000000   0.000000000   0.866244909
 
                       Lattice parameters(A)       Cell Angles
                    a =      7.253359          alpha =   90.000000
                    b =      7.253359          beta  =   90.000000
                    c =      7.253359          gamma =   90.000000
 
                       Current cell volume =           381.608043       A**3
                                   density =             5.162171   AMU/A**3
                                           =             8.571987     g/cm^3
 
                           -------------------------------
                                     Cell Contents
                           -------------------------------
                         Total number of ions in cell =   31
                      Total number of species in cell =    1
                        Max number of any one species =   31
 
            xxxxxxxxxxxxxxxxxxxxxxxxxxxxxxxxxxxxxxxxxxxxxxxxxxxxxxxxxxxx
            x                          Reactant                        x
            xxxxxxxxxxxxxxxxxxxxxxxxxxxxxxxxxxxxxxxxxxxxxxxxxxxxxxxxxxxx
            x  Element    Atom        Fractional coordinates of atoms  x
            x            Number           u          v          w      x
            x----------------------------------------------------------x
            x  Cu           1        -0.000002   0.000001   0.000000   x 
            x  Cu           2         0.999999   0.250819   0.250805   x 
            x  Cu           3         0.250818   0.999997   0.250809   x 
            x  Cu           4         0.250814   0.250816  -0.000001   x 
            x  Cu           5         0.000002  -0.000003   0.500000   x 
            x  Cu           6         0.999999   0.250819   0.749196   x 
            x  Cu           7         0.250818  -0.000002   0.749191   x 
            x  Cu           8         0.252920   0.252920   0.500000   x 
            x  Cu           9         0.999999   0.499999  -0.000000   x 
            x  Cu          10         1.000004   0.749181   0.250809   x 
            x  Cu          11         0.252916   0.500003   0.252914   x 
            x  Cu          12         0.250813   0.749184   0.000001   x 
            x  Cu          13         1.000003   0.500004   0.500000   x 
            x  Cu          14         1.000003   0.749181   0.749191   x 
            x  Cu          15         0.252916   0.500002   0.747085   x 
            x  Cu          16         0.252919   0.747080   0.500000   x 
            x  Cu          17         0.500002   0.000002   1.000001   x 
            x  Cu          18         0.500001   0.252916   0.252911   x 
            x  Cu          19         0.749182   0.000001   0.250804   x 
            x  Cu          20         0.749186   0.250815  -0.000000   x 
            x  Cu          21         0.499997  -0.000002   0.500000   x 
            x  Cu          22         0.500002   0.252917   0.747088   x 
            x  Cu          23         0.749182   0.000002   0.749195   x 
            x  Cu          24         0.747080   0.252919   0.500000   x 
            x  Cu          25         0.500001   0.499998   0.000000   x 
            x  Cu          26         0.499997   0.747083   0.252916   x 
            x  Cu          27         0.747084   0.499999   0.252910   x 
            x  Cu          28         0.749187   0.749186   0.000001   x 
            x  Cu          29         0.499997   0.747083   0.747084   x 
            x  Cu          30         0.747084   0.499998   0.747090   x 
            x  Cu          31         0.747081   0.747081   0.500000   x 
            xxxxxxxxxxxxxxxxxxxxxxxxxxxxxxxxxxxxxxxxxxxxxxxxxxxxxxxxxxxx
 
            xxxxxxxxxxxxxxxxxxxxxxxxxxxxxxxxxxxxxxxxxxxxxxxxxxxxxxxxxxxx
            x                          Product                         x
            xxxxxxxxxxxxxxxxxxxxxxxxxxxxxxxxxxxxxxxxxxxxxxxxxxxxxxxxxxxx
            x  Element    Atom        Fractional coordinates of atoms  x
            x            Number           u          v          w      x
            x----------------------------------------------------------x
            x  Cu           1         0.000827   0.000827   0.000000   x 
            x  Cu           2         0.002895   0.249953   0.252848   x 
            x  Cu           3         0.249953   0.002895   0.252848   x 
            x  Cu           4         0.249953   0.249953   0.999951   x 
            x  Cu           5         0.002895   0.002895   0.500044   x 
            x  Cu           6         0.002895   0.249953   0.747102   x 
            x  Cu           7         0.249953   0.002895   0.747102   x 
            x  Cu           8         0.497149   0.497149   0.500044   x 
            x  Cu           9         0.000827   0.499217   0.000000   x 
            x  Cu          10         0.000827   0.749997   0.250780   x 
            x  Cu          11         0.249953   0.497149   0.252848   x 
            x  Cu          12         0.249953   0.749997   0.000000   x 
            x  Cu          13         0.002895   0.497149   0.500044   x 
            x  Cu          14         0.000827   0.749997   0.749170   x 
            x  Cu          15         0.249953   0.497149   0.747102   x 
            x  Cu          16         0.249953   0.749997   0.500044   x 
            x  Cu          17         0.499217   0.000827   0.000000   x 
            x  Cu          18         0.497149   0.249953   0.252848   x 
            x  Cu          19         0.749997   0.000827   0.250780   x 
            x  Cu          20         0.749997   0.249953   0.999951   x 
            x  Cu          21         0.497149   0.002895   0.500044   x 
            x  Cu          22         0.497149   0.249953   0.747102   x 
            x  Cu          23         0.749997   0.000827   0.749170   x 
            x  Cu          24         0.749997   0.249953   0.500044   x 
            x  Cu          25         0.499217   0.499217   0.000000   x 
            x  Cu          26         0.499217   0.749997   0.250780   x 
            x  Cu          27         0.749997   0.499217   0.250780   x 
            x  Cu          28         0.749997   0.749997   0.000000   x 
            x  Cu          29         0.499217   0.749997   0.749170   x 
            x  Cu          30         0.749997   0.499217   0.749170   x 
            x  Cu          31         0.749997   0.749997   0.500044   x 
            xxxxxxxxxxxxxxxxxxxxxxxxxxxxxxxxxxxxxxxxxxxxxxxxxxxxxxxxxxxx
 
 
                         No user defined ionic velocities
 
                           -------------------------------
                                   Details of Species
                           -------------------------------
 
                               Mass of species in AMU
                                    Cu   63.5460000
 
                          Electric Quadrupole Moment (Barn)
                                    Cu   -0.2200000 Isotope 63
 
                          Files used for pseudopotentials:
                                    Cu 3|2.2|2.0|1.0|10|12|13|40:41:32(qc=6)
 
                           -------------------------------
                              k-Points For BZ Sampling
                           -------------------------------
                       MP grid size for SCF calculation is  4  4  4
                            with an offset of   0.000  0.000  0.000
                       Number of kpoints used =   32
 
                           -------------------------------
                               Symmetry and Constraints
                           -------------------------------
 
                      Maximum deviation from symmetry =  0.00000         ANG
 
                      Number of symmetry operations   = 1
         There are no ionic constraints specified or generated for this cell
                      Point group of crystal =     1: C1, 1, 1
                      Space group of crystal =   221: Pm-3m, -P 4 2 3
 
             Set iprint > 1 for details on symmetry rotations/translations
 
                         Centre of mass is NOT constrained
 
                         Number of cell constraints= 0
                         Cell constraints are:  1 2 3 4 5 6
 
                         External pressure/stress (GPa)
                          0.00000   0.00000   0.00000
                                    0.00000   0.00000
                                              0.00000
  
+---------------- MEMORY AND SCRATCH DISK ESTIMATES PER PROCESS --------------+
|                                                     Memory          Disk    |
| Baseline code, static data and system overhead      368.0 MB         0.0 MB |
| BLAS internal memory storage                          0.0 MB         0.0 MB |
| Model and support data                              460.9 MB       294.8 MB |
| Electronic energy minimisation requirements         651.2 MB         0.0 MB |
| Force calculation requirements                       24.5 MB         0.0 MB |
|                                               ----------------------------- |
| Approx. total storage required per process         1480.0 MB       294.8 MB |
|                                                                             |
| Requirements will fluctuate during execution and may exceed these estimates |
+-----------------------------------------------------------------------------+
Calculating approximate eigenstates for fixed initial Hamiltonian
Cut-off for approx. calculation is   89.988 eV
Improving approx. states at cut-off of  272.114 eV
Resetting cut-off to  500.000 eV
Calculating total energy with cut-off of  500.000 eV.
------------------------------------------------------------------------ <-- SCF
SCF loop      Energy           Fermi           Energy gain       Timer   <-- SCF
                               energy          per atom          (sec)   <-- SCF
------------------------------------------------------------------------ <-- SCF
Initial  -5.30333309E+004  0.00000000E+000                       142.70  <-- SCF
      1  -5.21058894E+004  4.28445483E+000  -2.99174652E+001     266.18  <-- SCF
      2  -5.21073752E+004  4.31019595E+000   4.79279352E-002     398.79  <-- SCF
      3  -5.21078851E+004  4.27970181E+000   1.64483651E-002     489.69  <-- SCF
      4  -5.21078793E+004  4.17607222E+000  -1.85893475E-004     579.98  <-- SCF
      5  -5.21077027E+004  4.16764401E+000  -5.69832924E-003     670.00  <-- SCF
      6  -5.21077046E+004  4.19741770E+000   5.97546030E-005     762.39  <-- SCF
      7  -5.21076895E+004  4.18708977E+000  -4.85609033E-004     852.60  <-- SCF
      8  -5.21076903E+004  4.18318890E+000   2.69669392E-005     944.68  <-- SCF
      9  -5.21076892E+004  4.18520188E+000  -3.62515349E-005    1024.25  <-- SCF
     10  -5.21077238E+004  4.18443850E+000   1.11645985E-003    1085.80  <-- SCF
     11  -5.21077249E+004  4.18537230E+000   3.41742871E-005    1168.37  <-- SCF
     12  -5.21077295E+004  4.18488617E+000   1.48410974E-004    1244.56  <-- SCF
     13  -5.21077295E+004  4.18499320E+000   1.02284434E-006    1305.58  <-- SCF
     14  -5.21077295E+004  4.18494590E+000   1.01231800E-008    1366.73  <-- SCF
------------------------------------------------------------------------ <-- SCF
 
Integrated Spin Density     =   -0.336846E-02 hbar/2                        
Integrated |Spin Density|   =    0.120488E-01 hbar/2                        
 
Final energy, E             =  -52107.51666343     eV
Final free energy (E-TS)    =  -52107.72951162     eV
(energies not corrected for finite basis set)
 
NB est. 0K energy (E-0.5TS)      =  -52107.62308752     eV
 

Writing analysis data to initial.castep_bin

Writing model to initial.check
++++++++++++++++++++++++++++++++++++++++++++++++++++++++++++++++++++++++++++++++
+++++++++++++++++++++++ Starting Transition State Search +++++++++++++++++++++++
++++++++++++++++++++++++++++++++++++++++++++++++++++++++++++++++++++++++++++++++
 
 =====================================================================
 |                                                                   |
 |                  Nudged Elastic Band optimization                 |
 |                                                                   |
 =====================================================================

     NEB elastic constant:      0.001029 Hartree/Bohr^2
Optimisation algorithm:     ode12r                                                                                                                                                                                                                                                          
Tangent mode:     Spline interpolation                                                                                                                                                                                                                                            
 Number of task farms to use: 1
  --- Initialising NEB constraints ---
     Fixed  0  degrees of freedom
     Using  0  Lagrange multipliers
 
 Reactant structure energy:  -52107.729516429259  eV
 Product structure energy:  -52107.72954416048  eV
 
 *********************** 
     Iteration:     1

 *********************** 

     Failed to converge
 
 ************************************** Forces **************************************
 *                                                                                  *
 *                           Cartesian components (eV/A)                            *
 * -------------------------------------------------------------------------------- *
 *                         x                    y                    z              *
 *                                                                                  *
 * Cu              1      0.00032              0.00032             -0.00094         *
 * Cu              2     -0.00773              0.00404             -0.00329         *
 * Cu              3      0.00405             -0.00744             -0.00306         *
 * Cu              4      0.00390              0.00390              0.00127         *
 * Cu              5     -0.00691             -0.00691             -0.00352         *
 * Cu              6     -0.00677              0.00405              0.00594         *
 * Cu              7      0.00405             -0.00706              0.00616         *
 * Cu              8      0.00156              0.00156             -0.00351         *
 * Cu              9      0.00042             -0.00415             -0.00094         *
 * Cu             10      0.00053              0.00087              0.00478         *
 * Cu             11      0.00743              0.00314              0.00063         *
 * Cu             12      0.00400              0.00074             -0.00094         *
 * Cu             13     -0.00753              0.00313             -0.00351         *
 * Cu             14      0.00050              0.00087             -0.00051         *
 * Cu             15      0.00744              0.00276              0.00246         *
 * Cu             16      0.00705             -0.00156             -0.00342         *
 * Cu             17     -0.00415              0.00042             -0.00094         *
 * Cu             18      0.00343              0.00743              0.00040         *
 * Cu             19      0.00087              0.00087              0.00451         *
 * Cu             20      0.00074              0.00400              0.00125         *
 * Cu             21      0.00313             -0.00752             -0.00351         *
 * Cu             22      0.00247              0.00744              0.00223         *
 * Cu             23      0.00087              0.00016             -0.00078         *
 * Cu             24     -0.00156              0.00705             -0.00348         *
 * Cu             25     -0.00408             -0.00408             -0.00093         *
 * Cu             26     -0.00417             -0.00198              0.00791         *
 * Cu             27     -0.00199             -0.00451              0.00764         *
 * Cu             28      0.00086              0.00086             -0.00101         *
 * Cu             29     -0.00414             -0.00199             -0.00364         *
 * Cu             30     -0.00199             -0.00380             -0.00390         *
 * Cu             31     -0.00262             -0.00262             -0.00337         *
 *                                                                                  *
 ************************************************************************************
 
 Pseudo atomic calculation performed for Cu 3d10 4s1
 
 Converged in 49 iterations to a total energy of -1676.8614 eV
Charge spilling parameter for spin component 1 = 0.09%
Charge spilling parameter for spin component 2 = 0.09%
 
                   Orbital Populations                  
  ---------------------------------------------------------------
     Ion    Atom   Orbital              Up        Down      Spin
  ---------------------------------------------------------------
     Cu     1      Dzz                  0.978     0.978     0.000
     Cu     1      Dzy                  0.966     0.966     0.000
     Cu     1      Dzx                  0.966     0.966     0.000
     Cu     1      Dxx-yy               0.978     0.978     0.000
     Cu     1      Dxy                  0.966     0.966     0.000
     Cu     1      S                    0.397     0.397    -0.000
     Cu     1      Px                   0.079     0.079    -0.000
     Cu     1      Py                   0.079     0.079    -0.000
     Cu     1      Pz                   0.079     0.079    -0.000
     Cu     2      Dzz                  0.977     0.977     0.000
     Cu     2      Dzy                  0.964     0.964     0.000
     Cu     2      Dzx                  0.973     0.973     0.000
     Cu     2      Dxx-yy               0.979     0.979     0.000
     Cu     2      Dxy                  0.964     0.964     0.000
     Cu     2      S                    0.407     0.407    -0.000
     Cu     2      Px                   0.077     0.077    -0.000
     Cu     2      Py                   0.093     0.093    -0.000
     Cu     2      Pz                   0.077     0.077    -0.000
     Cu     3      Dzz                  0.977     0.977     0.000
     Cu     3      Dzy                  0.973     0.973     0.000
     Cu     3      Dzx                  0.964     0.964     0.000
     Cu     3      Dxx-yy               0.979     0.979     0.000
     Cu     3      Dxy                  0.964     0.964     0.000
     Cu     3      S                    0.407     0.407    -0.000
     Cu     3      Px                   0.093     0.093    -0.000
     Cu     3      Py                   0.077     0.077    -0.000
     Cu     3      Pz                   0.077     0.077    -0.000
     Cu     4      Dzz                  0.975     0.975    -0.000
     Cu     4      Dzy                  0.966     0.966     0.000
     Cu     4      Dzx                  0.966     0.966     0.000
     Cu     4      Dxx-yy               0.979     0.979     0.000
     Cu     4      Dxy                  0.966     0.966    -0.000
     Cu     4      S                    0.413     0.413    -0.000
     Cu     4      Px                   0.076     0.076    -0.000
     Cu     4      Py                   0.076     0.076    -0.000
     Cu     4      Pz                   0.131     0.131    -0.000
     Cu     5      Dzz                  0.980     0.980     0.000
     Cu     5      Dzy                  0.964     0.964     0.000
     Cu     5      Dzx                  0.964     0.964     0.000
     Cu     5      Dxx-yy               0.976     0.976     0.000
     Cu     5      Dxy                  0.973     0.973    -0.000
     Cu     5      S                    0.407     0.407    -0.000
     Cu     5      Px                   0.077     0.077    -0.000
     Cu     5      Py                   0.077     0.077    -0.000
     Cu     5      Pz                   0.093     0.093    -0.000
     Cu     6      Dzz                  0.977     0.977     0.000
     Cu     6      Dzy                  0.964     0.964     0.000
     Cu     6      Dzx                  0.973     0.973     0.000
     Cu     6      Dxx-yy               0.979     0.979     0.000
     Cu     6      Dxy                  0.964     0.964     0.000
     Cu     6      S                    0.407     0.408    -0.000
     Cu     6      Px                   0.077     0.077    -0.000
     Cu     6      Py                   0.093     0.093    -0.000
     Cu     6      Pz                   0.077     0.077    -0.000
     Cu     7      Dzz                  0.977     0.977     0.000
     Cu     7      Dzy                  0.973     0.973    -0.000
     Cu     7      Dzx                  0.964     0.964     0.000
     Cu     7      Dxx-yy               0.979     0.979     0.000
     Cu     7      Dxy                  0.964     0.964     0.000
     Cu     7      S                    0.407     0.407    -0.000
     Cu     7      Px                   0.093     0.093    -0.000
     Cu     7      Py                   0.077     0.077     0.000
     Cu     7      Pz                   0.077     0.077    -0.000
     Cu     8      Dzz                  0.980     0.980     0.000
     Cu     8      Dzy                  0.964     0.964     0.000
     Cu     8      Dzx                  0.964     0.964     0.000
     Cu     8      Dxx-yy               0.976     0.976     0.000
     Cu     8      Dxy                  0.973     0.973    -0.000
     Cu     8      S                    0.408     0.408    -0.000
     Cu     8      Px                   0.077     0.077     0.000
     Cu     8      Py                   0.077     0.077     0.000
     Cu     8      Pz                   0.093     0.093    -0.000
     Cu     9      Dzz                  0.978     0.978     0.000
     Cu     9      Dzy                  0.966     0.966     0.000
     Cu     9      Dzx                  0.966     0.966     0.000
     Cu     9      Dxx-yy               0.978     0.978     0.000
     Cu     9      Dxy                  0.966     0.966    -0.000
     Cu     9      S                    0.397     0.397    -0.000
     Cu     9      Px                   0.079     0.080    -0.000
     Cu     9      Py                   0.080     0.080    -0.000
     Cu     9      Pz                   0.079     0.079    -0.000
     Cu    10      Dzz                  0.978     0.978     0.000
     Cu    10      Dzy                  0.966     0.966     0.000
     Cu    10      Dzx                  0.966     0.966     0.000
     Cu    10      Dxx-yy               0.978     0.978     0.000
     Cu    10      Dxy                  0.966     0.966     0.000
     Cu    10      S                    0.397     0.397    -0.000
     Cu    10      Px                   0.080     0.080    -0.000
     Cu    10      Py                   0.079     0.079    -0.000
     Cu    10      Pz                   0.080     0.080    -0.000
     Cu    11      Dzz                  0.977     0.977     0.000
     Cu    11      Dzy                  0.973     0.973     0.000
     Cu    11      Dzx                  0.964     0.964     0.000
     Cu    11      Dxx-yy               0.979     0.979     0.000
     Cu    11      Dxy                  0.964     0.964     0.000
     Cu    11      S                    0.407     0.407    -0.000
     Cu    11      Px                   0.093     0.093    -0.000
     Cu    11      Py                   0.077     0.077    -0.000
     Cu    11      Pz                   0.077     0.077    -0.000
     Cu    12      Dzz                  0.978     0.978     0.000
     Cu    12      Dzy                  0.970     0.970     0.000
     Cu    12      Dzx                  0.965     0.965     0.000
     Cu    12      Dxx-yy               0.979     0.979     0.000
     Cu    12      Dxy                  0.965     0.965    -0.000
     Cu    12      S                    0.393     0.393    -0.000
     Cu    12      Px                   0.075     0.075    -0.000
     Cu    12      Py                   0.069     0.069    -0.000
     Cu    12      Pz                   0.069     0.069    -0.000
     Cu    13      Dzz                  0.980     0.980     0.000
     Cu    13      Dzy                  0.964     0.964    -0.000
     Cu    13      Dzx                  0.964     0.964     0.000
     Cu    13      Dxx-yy               0.976     0.976     0.000
     Cu    13      Dxy                  0.973     0.973    -0.000
     Cu    13      S                    0.407     0.407    -0.000
     Cu    13      Px                   0.077     0.077    -0.000
     Cu    13      Py                   0.077     0.077    -0.000
     Cu    13      Pz                   0.093     0.093    -0.000
     Cu    14      Dzz                  0.978     0.978     0.000
     Cu    14      Dzy                  0.966     0.966     0.000
     Cu    14      Dzx                  0.966     0.966     0.000
     Cu    14      Dxx-yy               0.978     0.978     0.000
     Cu    14      Dxy                  0.966     0.966     0.000
     Cu    14      S                    0.397     0.397    -0.000
     Cu    14      Px                   0.079     0.079    -0.000
     Cu    14      Py                   0.079     0.079    -0.000
     Cu    14      Pz                   0.079     0.079    -0.000
     Cu    15      Dzz                  0.977     0.977     0.000
     Cu    15      Dzy                  0.973     0.973    -0.000
     Cu    15      Dzx                  0.964     0.964     0.000
     Cu    15      Dxx-yy               0.979     0.979     0.000
     Cu    15      Dxy                  0.964     0.964     0.000
     Cu    15      S                    0.407     0.407    -0.000
     Cu    15      Px                   0.093     0.093     0.000
     Cu    15      Py                   0.077     0.077     0.000
     Cu    15      Pz                   0.077     0.077    -0.000
     Cu    16      Dzz                  0.978     0.978     0.000
     Cu    16      Dzy                  0.966     0.966     0.000
     Cu    16      Dzx                  0.966     0.966     0.000
     Cu    16      Dxx-yy               0.976     0.976     0.000
     Cu    16      Dxy                  0.966     0.966     0.000
     Cu    16      S                    0.413     0.413    -0.000
     Cu    16      Px                   0.076     0.076    -0.000
     Cu    16      Py                   0.131     0.131    -0.000
     Cu    16      Pz                   0.076     0.076    -0.000
     Cu    17      Dzz                  0.978     0.978     0.000
     Cu    17      Dzy                  0.966     0.966     0.000
     Cu    17      Dzx                  0.966     0.966     0.000
     Cu    17      Dxx-yy               0.978     0.978     0.000
     Cu    17      Dxy                  0.966     0.966    -0.000
     Cu    17      S                    0.397     0.397    -0.000
     Cu    17      Px                   0.080     0.080    -0.000
     Cu    17      Py                   0.079     0.080    -0.000
     Cu    17      Pz                   0.079     0.079    -0.000
     Cu    18      Dzz                  0.977     0.977     0.000
     Cu    18      Dzy                  0.964     0.964     0.000
     Cu    18      Dzx                  0.973     0.973     0.000
     Cu    18      Dxx-yy               0.979     0.979     0.000
     Cu    18      Dxy                  0.964     0.964     0.000
     Cu    18      S                    0.407     0.407    -0.000
     Cu    18      Px                   0.077     0.077    -0.000
     Cu    18      Py                   0.093     0.093    -0.000
     Cu    18      Pz                   0.077     0.077    -0.000
     Cu    19      Dzz                  0.978     0.978     0.000
     Cu    19      Dzy                  0.966     0.966     0.000
     Cu    19      Dzx                  0.966     0.966     0.000
     Cu    19      Dxx-yy               0.978     0.978     0.000
     Cu    19      Dxy                  0.966     0.966     0.000
     Cu    19      S                    0.397     0.397    -0.000
     Cu    19      Px                   0.079     0.079    -0.000
     Cu    19      Py                   0.080     0.080    -0.000
     Cu    19      Pz                   0.080     0.080    -0.000
     Cu    20      Dzz                  0.978     0.978     0.000
     Cu    20      Dzy                  0.965     0.965    -0.000
     Cu    20      Dzx                  0.970     0.970     0.000
     Cu    20      Dxx-yy               0.979     0.979     0.000
     Cu    20      Dxy                  0.965     0.965    -0.000
     Cu    20      S                    0.393     0.393    -0.000
     Cu    20      Px                   0.069     0.069    -0.000
     Cu    20      Py                   0.075     0.075    -0.000
     Cu    20      Pz                   0.069     0.069    -0.000
     Cu    21      Dzz                  0.980     0.980     0.000
     Cu    21      Dzy                  0.964     0.964     0.000
     Cu    21      Dzx                  0.964     0.964     0.000
     Cu    21      Dxx-yy               0.976     0.976     0.000
     Cu    21      Dxy                  0.973     0.973    -0.000
     Cu    21      S                    0.407     0.407    -0.000
     Cu    21      Px                   0.077     0.077    -0.000
     Cu    21      Py                   0.077     0.077    -0.000
     Cu    21      Pz                   0.093     0.093    -0.000
     Cu    22      Dzz                  0.977     0.977     0.000
     Cu    22      Dzy                  0.964     0.964     0.000
     Cu    22      Dzx                  0.973     0.973    -0.000
     Cu    22      Dxx-yy               0.979     0.979     0.000
     Cu    22      Dxy                  0.964     0.964     0.000
     Cu    22      S                    0.407     0.407    -0.000
     Cu    22      Px                   0.077     0.077    -0.000
     Cu    22      Py                   0.093     0.093    -0.000
     Cu    22      Pz                   0.077     0.077    -0.000
     Cu    23      Dzz                  0.978     0.978     0.000
     Cu    23      Dzy                  0.966     0.966    -0.000
     Cu    23      Dzx                  0.966     0.966     0.000
     Cu    23      Dxx-yy               0.978     0.978     0.000
     Cu    23      Dxy                  0.966     0.966     0.000
     Cu    23      S                    0.397     0.397    -0.000
     Cu    23      Px                   0.079     0.079    -0.000
     Cu    23      Py                   0.079     0.079    -0.000
     Cu    23      Pz                   0.079     0.079    -0.000
     Cu    24      Dzz                  0.978     0.978     0.000
     Cu    24      Dzy                  0.966     0.966    -0.000
     Cu    24      Dzx                  0.966     0.966     0.000
     Cu    24      Dxx-yy               0.976     0.976     0.000
     Cu    24      Dxy                  0.966     0.966    -0.000
     Cu    24      S                    0.413     0.413    -0.000
     Cu    24      Px                   0.131     0.131    -0.000
     Cu    24      Py                   0.076     0.076    -0.000
     Cu    24      Pz                   0.076     0.076    -0.000
     Cu    25      Dzz                  0.978     0.978     0.000
     Cu    25      Dzy                  0.966     0.966    -0.000
     Cu    25      Dzx                  0.966     0.966    -0.000
     Cu    25      Dxx-yy               0.978     0.978     0.000
     Cu    25      Dxy                  0.966     0.966     0.000
     Cu    25      S                    0.397     0.397    -0.000
     Cu    25      Px                   0.080     0.080    -0.000
     Cu    25      Py                   0.080     0.080    -0.000
     Cu    25      Pz                   0.079     0.079     0.000
     Cu    26      Dzz                  0.978     0.978     0.000
     Cu    26      Dzy                  0.966     0.966     0.000
     Cu    26      Dzx                  0.966     0.966     0.000
     Cu    26      Dxx-yy               0.978     0.978     0.000
     Cu    26      Dxy                  0.966     0.966     0.000
     Cu    26      S                    0.397     0.397    -0.000
     Cu    26      Px                   0.080     0.080    -0.000
     Cu    26      Py                   0.079     0.079     0.000
     Cu    26      Pz                   0.080     0.080    -0.000
     Cu    27      Dzz                  0.978     0.978     0.000
     Cu    27      Dzy                  0.966     0.966     0.000
     Cu    27      Dzx                  0.966     0.966     0.000
     Cu    27      Dxx-yy               0.978     0.978     0.000
     Cu    27      Dxy                  0.966     0.966     0.000
     Cu    27      S                    0.397     0.397    -0.000
     Cu    27      Px                   0.079     0.079     0.000
     Cu    27      Py                   0.080     0.080    -0.000
     Cu    27      Pz                   0.080     0.080    -0.000
     Cu    28      Dzz                  0.978     0.978     0.000
     Cu    28      Dzy                  0.966     0.966     0.000
     Cu    28      Dzx                  0.966     0.966     0.000
     Cu    28      Dxx-yy               0.978     0.978     0.000
     Cu    28      Dxy                  0.966     0.966    -0.000
     Cu    28      S                    0.393     0.393    -0.000
     Cu    28      Px                   0.081     0.081    -0.000
     Cu    28      Py                   0.081     0.081    -0.000
     Cu    28      Pz                   0.081     0.081    -0.000
     Cu    29      Dzz                  0.978     0.978     0.000
     Cu    29      Dzy                  0.966     0.966     0.000
     Cu    29      Dzx                  0.966     0.966     0.000
     Cu    29      Dxx-yy               0.978     0.978    -0.000
     Cu    29      Dxy                  0.966     0.966     0.000
     Cu    29      S                    0.397     0.397    -0.000
     Cu    29      Px                   0.080     0.080    -0.000
     Cu    29      Py                   0.079     0.079     0.000
     Cu    29      Pz                   0.079     0.079    -0.000
     Cu    30      Dzz                  0.978     0.978     0.000
     Cu    30      Dzy                  0.966     0.966     0.000
     Cu    30      Dzx                  0.966     0.966     0.000
     Cu    30      Dxx-yy               0.978     0.978     0.000
     Cu    30      Dxy                  0.966     0.966     0.000
     Cu    30      S                    0.397     0.397    -0.000
     Cu    30      Px                   0.079     0.079    -0.000
     Cu    30      Py                   0.079     0.079    -0.000
     Cu    30      Pz                   0.079     0.079    -0.000
     Cu    31      Dzz                  0.980     0.980     0.000
     Cu    31      Dzy                  0.965     0.965    -0.000
     Cu    31      Dzx                  0.965     0.965     0.000
     Cu    31      Dxx-yy               0.977     0.977     0.000
     Cu    31      Dxy                  0.970     0.970     0.000
     Cu    31      S                    0.393     0.393    -0.000
     Cu    31      Px                   0.069     0.069    -0.000
     Cu    31      Py                   0.069     0.069    -0.000
     Cu    31      Pz                   0.075     0.075    -0.000
  ---------------------------------------------------------------
                           Total:     170.500   170.500    -0.000
  ---------------------------------------------------------------
 
     Atomic Populations (Mulliken)
     -----------------------------
Species          Ion Spin      s       p       d       f      Total   Charge(e)   Spin(hbar/2)
==============================================================================================
  Cu              1   up:     0.397   0.238   4.853   0.000   5.487     0.026        0.000
                  1   dn:     0.397   0.238   4.853   0.000   5.487
  Cu              2   up:     0.407   0.246   4.857   0.000   5.511    -0.022        0.000
                  2   dn:     0.407   0.246   4.857   0.000   5.511
  Cu              3   up:     0.407   0.246   4.857   0.000   5.511    -0.022        0.000
                  3   dn:     0.407   0.246   4.857   0.000   5.511
  Cu              4   up:     0.413   0.283   4.852   0.000   5.549    -0.098       -0.000
                  4   dn:     0.413   0.283   4.852   0.000   5.549
  Cu              5   up:     0.407   0.246   4.857   0.000   5.511    -0.022        0.000
                  5   dn:     0.407   0.246   4.857   0.000   5.511
  Cu              6   up:     0.407   0.246   4.857   0.000   5.511    -0.022        0.000
                  6   dn:     0.408   0.246   4.857   0.000   5.511
  Cu              7   up:     0.407   0.246   4.857   0.000   5.511    -0.022        0.000
                  7   dn:     0.407   0.246   4.857   0.000   5.511
  Cu              8   up:     0.408   0.247   4.857   0.000   5.512    -0.025       -0.000
                  8   dn:     0.408   0.247   4.857   0.000   5.512
  Cu              9   up:     0.397   0.238   4.853   0.000   5.487     0.026       -0.000
                  9   dn:     0.397   0.238   4.853   0.000   5.487
  Cu             10   up:     0.397   0.238   4.853   0.000   5.487     0.026        0.000
                 10   dn:     0.397   0.238   4.853   0.000   5.487
  Cu             11   up:     0.407   0.246   4.857   0.000   5.511    -0.022        0.000
                 11   dn:     0.407   0.246   4.857   0.000   5.511
  Cu             12   up:     0.393   0.212   4.857   0.000   5.462     0.076       -0.000
                 12   dn:     0.393   0.212   4.857   0.000   5.462
  Cu             13   up:     0.407   0.246   4.857   0.000   5.511    -0.022       -0.000
                 13   dn:     0.407   0.246   4.857   0.000   5.511
  Cu             14   up:     0.397   0.238   4.853   0.000   5.487     0.026        0.000
                 14   dn:     0.397   0.238   4.853   0.000   5.487
  Cu             15   up:     0.407   0.246   4.857   0.000   5.511    -0.022        0.000
                 15   dn:     0.407   0.246   4.857   0.000   5.511
  Cu             16   up:     0.413   0.283   4.852   0.000   5.549    -0.098       -0.000
                 16   dn:     0.413   0.283   4.852   0.000   5.549
  Cu             17   up:     0.397   0.238   4.853   0.000   5.487     0.026       -0.000
                 17   dn:     0.397   0.238   4.853   0.000   5.487
  Cu             18   up:     0.407   0.246   4.857   0.000   5.511    -0.022        0.000
                 18   dn:     0.407   0.247   4.857   0.000   5.511
  Cu             19   up:     0.397   0.238   4.853   0.000   5.487     0.026        0.000
                 19   dn:     0.397   0.238   4.853   0.000   5.487
  Cu             20   up:     0.393   0.212   4.857   0.000   5.462     0.076       -0.000
                 20   dn:     0.393   0.212   4.857   0.000   5.462
  Cu             21   up:     0.407   0.246   4.857   0.000   5.511    -0.022       -0.000
                 21   dn:     0.407   0.246   4.857   0.000   5.511
  Cu             22   up:     0.407   0.246   4.857   0.000   5.511    -0.022       -0.000
                 22   dn:     0.407   0.246   4.857   0.000   5.511
  Cu             23   up:     0.397   0.238   4.853   0.000   5.487     0.026       -0.000
                 23   dn:     0.397   0.238   4.853   0.000   5.487
  Cu             24   up:     0.413   0.283   4.852   0.000   5.549    -0.098       -0.000
                 24   dn:     0.413   0.283   4.852   0.000   5.549
  Cu             25   up:     0.397   0.238   4.853   0.000   5.487     0.025       -0.000
                 25   dn:     0.397   0.238   4.853   0.000   5.487
  Cu             26   up:     0.397   0.238   4.853   0.000   5.487     0.026        0.000
                 26   dn:     0.397   0.238   4.853   0.000   5.487
  Cu             27   up:     0.397   0.238   4.853   0.000   5.487     0.025        0.000
                 27   dn:     0.397   0.238   4.853   0.000   5.487
  Cu             28   up:     0.393   0.242   4.853   0.000   5.489     0.023       -0.000
                 28   dn:     0.393   0.242   4.853   0.000   5.489
  Cu             29   up:     0.397   0.238   4.853   0.000   5.487     0.026        0.000
                 29   dn:     0.397   0.238   4.853   0.000   5.487
  Cu             30   up:     0.397   0.238   4.853   0.000   5.487     0.026        0.000
                 30   dn:     0.397   0.238   4.853   0.000   5.487
  Cu             31   up:     0.393   0.212   4.857   0.000   5.462     0.076        0.000
                 31   dn:     0.393   0.212   4.857   0.000   5.462
==============================================================================================
 
                 Bond                   Population        Spin       Length (A)
================================================================================
             Cu 6  -- Cu 7                   0.31        -0.00          2.53427
             Cu 2  -- Cu 3                   0.31        -0.00          2.53427
             Cu 21 -- Cu 22                  0.31        -0.00          2.53427
             Cu 13 -- Cu 15                  0.31        -0.00          2.53427
             Cu 5  -- Cu 7                   0.31        -0.00          2.53427
             Cu 5  -- Cu 6                   0.31        -0.00          2.53427
             Cu 7  -- Cu 22                  0.31         0.00          2.53498
             Cu 6  -- Cu 15                  0.31         0.00          2.53498
             Cu 3  -- Cu 18                  0.31         0.00          2.53498
             Cu 2  -- Cu 11                  0.31        -0.00          2.53498
             Cu 18 -- Cu 21                  0.31        -0.00          2.53498
             Cu 11 -- Cu 13                  0.31        -0.00          2.53498
             Cu 8  -- Cu 22                  0.31        -0.00          2.53498
             Cu 8  -- Cu 15                  0.31        -0.00          2.53498
             Cu 7  -- Cu 21                  0.31        -0.00          2.53498
             Cu 6  -- Cu 13                  0.31        -0.00          2.53498
             Cu 3  -- Cu 5                   0.31         0.00          2.53498
             Cu 2  -- Cu 5                   0.31         0.00          2.53498
             Cu 15 -- Cu 22                  0.31        -0.00          2.53568
             Cu 11 -- Cu 18                  0.31        -0.00          2.53568
             Cu 8  -- Cu 18                  0.31        -0.00          2.53568
             Cu 8  -- Cu 11                  0.31        -0.00          2.53568
             Cu 3  -- Cu 21                  0.31        -0.00          2.53568
             Cu 2  -- Cu 13                  0.31         0.00          2.53568
             Cu 23 -- Cu 24                  0.26        -0.00          2.55548
             Cu 14 -- Cu 16                  0.26        -0.00          2.55548
             Cu 1  -- Cu 4                   0.26        -0.00          2.55548
             Cu 24 -- Cu 30                  0.26        -0.00          2.55619
             Cu 16 -- Cu 29                  0.26        -0.00          2.55619
             Cu 19 -- Cu 24                  0.26        -0.00          2.55619
             Cu 10 -- Cu 16                  0.26        -0.00          2.55619
             Cu 4  -- Cu 17                  0.26        -0.00          2.55619
             Cu 4  -- Cu 9                   0.26        -0.00          2.55619
             Cu 24 -- Cu 27                  0.26        -0.00          2.55690
             Cu 16 -- Cu 26                  0.26        -0.00          2.55690
             Cu 4  -- Cu 25                  0.26        -0.00          2.55690
             Cu 20 -- Cu 23                  0.27        -0.00          2.56398
             Cu 30 -- Cu 31                  0.27         0.00          2.56398
             Cu 29 -- Cu 31                  0.27         0.00          2.56398
             Cu 10 -- Cu 12                  0.27        -0.00          2.56398
             Cu 9  -- Cu 12                  0.27        -0.00          2.56398
             Cu 17 -- Cu 20                  0.27        -0.00          2.56398
             Cu 4  -- Cu 7                   0.30        -0.00          2.56414
             Cu 4  -- Cu 6                   0.30        -0.00          2.56414
             Cu 22 -- Cu 24                  0.30        -0.00          2.56414
             Cu 21 -- Cu 24                  0.30        -0.00          2.56414
             Cu 15 -- Cu 16                  0.30        -0.00          2.56414
             Cu 13 -- Cu 16                  0.30        -0.00          2.56414
             Cu 23 -- Cu 31                  0.27        -0.00          2.56424
             Cu 14 -- Cu 31                  0.27        -0.00          2.56424
             Cu 12 -- Cu 14                  0.27        -0.00          2.56424
             Cu 1  -- Cu 12                  0.27        -0.00          2.56424
             Cu 19 -- Cu 20                  0.27        -0.00          2.56424
             Cu 1  -- Cu 20                  0.27        -0.00          2.56424
             Cu 5  -- Cu 24                  0.30        -0.00          2.56440
             Cu 5  -- Cu 16                  0.30        -0.00          2.56440
             Cu 7  -- Cu 16                  0.30        -0.00          2.56440
             Cu 6  -- Cu 24                  0.30        -0.00          2.56440
             Cu 3  -- Cu 4                   0.30        -0.00          2.56440
             Cu 2  -- Cu 4                   0.30        -0.00          2.56440
             Cu 20 -- Cu 30                  0.27        -0.00          2.56469
             Cu 12 -- Cu 26                  0.27        -0.00          2.56469
             Cu 12 -- Cu 25                  0.27        -0.00          2.56469
             Cu 27 -- Cu 31                  0.27         0.00          2.56469
             Cu 26 -- Cu 31                  0.27        -0.00          2.56469
             Cu 20 -- Cu 25                  0.27        -0.00          2.56469
             Cu 4  -- Cu 22                  0.30        -0.00          2.56484
             Cu 4  -- Cu 15                  0.30         0.00          2.56484
             Cu 8  -- Cu 24                  0.30        -0.00          2.56484
             Cu 8  -- Cu 16                  0.30        -0.00          2.56484
             Cu 18 -- Cu 24                  0.30        -0.00          2.56484
             Cu 11 -- Cu 16                  0.30        -0.00          2.56484
             Cu 19 -- Cu 31                  0.27        -0.00          2.56494
             Cu 12 -- Cu 29                  0.27        -0.00          2.56494
             Cu 12 -- Cu 17                  0.27        -0.00          2.56494
             Cu 10 -- Cu 31                  0.27         0.00          2.56494
             Cu 20 -- Cu 27                  0.27        -0.00          2.56494
             Cu 9  -- Cu 20                  0.27        -0.00          2.56494
             Cu 16 -- Cu 21                  0.30        -0.00          2.56510
             Cu 13 -- Cu 24                  0.30        -0.00          2.56510
             Cu 3  -- Cu 16                  0.30        -0.00          2.56510
             Cu 2  -- Cu 24                  0.30        -0.00          2.56510
             Cu 4  -- Cu 18                  0.30        -0.00          2.56510
             Cu 4  -- Cu 11                  0.30         0.00          2.56510
             Cu 29 -- Cu 30                  0.26        -0.00          2.57245
             Cu 27 -- Cu 28                  0.27         0.00          2.57245
             Cu 26 -- Cu 28                  0.27        -0.00          2.57245
             Cu 26 -- Cu 27                  0.26        -0.00          2.57245
             Cu 25 -- Cu 28                  0.27         0.00          2.57245
             Cu 25 -- Cu 27                  0.26         0.00          2.57245
             Cu 25 -- Cu 26                  0.26        -0.00          2.57245
             Cu 17 -- Cu 19                  0.26        -0.00          2.57245
             Cu 9  -- Cu 10                  0.26         0.00          2.57245
             Cu 28 -- Cu 30                  0.27        -0.00          2.57271
             Cu 28 -- Cu 29                  0.27        -0.00          2.57271
             Cu 25 -- Cu 30                  0.26        -0.00          2.57271
             Cu 25 -- Cu 29                  0.26        -0.00          2.57271
             Cu 23 -- Cu 29                  0.26        -0.00          2.57271
             Cu 19 -- Cu 28                  0.27        -0.00          2.57271
             Cu 19 -- Cu 26                  0.26        -0.00          2.57271
             Cu 17 -- Cu 28                  0.27        -0.00          2.57271
             Cu 17 -- Cu 26                  0.26        -0.00          2.57271
             Cu 17 -- Cu 23                  0.26        -0.00          2.57271
             Cu 14 -- Cu 30                  0.26        -0.00          2.57271
             Cu 10 -- Cu 28                  0.27        -0.00          2.57271
             Cu 10 -- Cu 27                  0.26        -0.00          2.57271
             Cu 9  -- Cu 28                  0.27        -0.00          2.57271
             Cu 9  -- Cu 27                  0.26        -0.00          2.57271
             Cu 9  -- Cu 14                  0.26         0.00          2.57271
             Cu 1  -- Cu 19                  0.26        -0.00          2.57271
             Cu 1  -- Cu 10                  0.26        -0.00          2.57271
             Cu 23 -- Cu 28                  0.27        -0.00          2.57296
             Cu 17 -- Cu 29                  0.26        -0.00          2.57296
             Cu 14 -- Cu 28                  0.27        -0.00          2.57296
             Cu 14 -- Cu 23                  0.26        -0.00          2.57296
             Cu 10 -- Cu 19                  0.26        -0.00          2.57296
             Cu 9  -- Cu 30                  0.26        -0.00          2.57296
             Cu 1  -- Cu 28                  0.27        -0.00          2.57296
             Cu 1  -- Cu 23                  0.26        -0.00          2.57296
             Cu 1  -- Cu 14                  0.26        -0.00          2.57296
             Cu 22 -- Cu 23                  0.24        -0.00          2.57469
             Cu 21 -- Cu 23                  0.24        -0.00          2.57469
             Cu 18 -- Cu 19                  0.24        -0.00          2.57469
             Cu 17 -- Cu 18                  0.24        -0.00          2.57469
             Cu 14 -- Cu 15                  0.24        -0.00          2.57469
             Cu 13 -- Cu 14                  0.24        -0.00          2.57469
             Cu 10 -- Cu 11                  0.24        -0.00          2.57469
             Cu 9  -- Cu 11                  0.24        -0.00          2.57469
             Cu 8  -- Cu 30                  0.24        -0.00          2.57469
             Cu 8  -- Cu 29                  0.24        -0.00          2.57469
             Cu 1  -- Cu 3                   0.24        -0.00          2.57469
             Cu 1  -- Cu 2                   0.24        -0.00          2.57469
             Cu 17 -- Cu 22                  0.24         0.00          2.57495
             Cu 9  -- Cu 15                  0.24        -0.00          2.57495
             Cu 1  -- Cu 7                   0.24        -0.00          2.57495
             Cu 1  -- Cu 6                   0.24        -0.00          2.57495
             Cu 21 -- Cu 29                  0.24        -0.00          2.57495
             Cu 13 -- Cu 30                  0.24        -0.00          2.57495
             Cu 7  -- Cu 14                  0.24        -0.00          2.57495
             Cu 6  -- Cu 23                  0.24        -0.00          2.57495
             Cu 5  -- Cu 23                  0.24         0.00          2.57495
             Cu 5  -- Cu 14                  0.24        -0.00          2.57495
             Cu 3  -- Cu 10                  0.24        -0.00          2.57495
             Cu 2  -- Cu 19                  0.24        -0.00          2.57495
             Cu 22 -- Cu 30                  0.24        -0.00          2.57539
             Cu 18 -- Cu 27                  0.24        -0.00          2.57539
             Cu 18 -- Cu 25                  0.24         0.00          2.57539
             Cu 15 -- Cu 29                  0.24         0.00          2.57539
             Cu 11 -- Cu 26                  0.24        -0.00          2.57539
             Cu 11 -- Cu 25                  0.24         0.00          2.57539
             Cu 10 -- Cu 13                  0.24        -0.00          2.57539
             Cu 8  -- Cu 26                  0.24        -0.00          2.57539
             Cu 3  -- Cu 17                  0.24        -0.00          2.57539
             Cu 2  -- Cu 9                   0.24        -0.00          2.57539
             Cu 19 -- Cu 21                  0.24        -0.00          2.57539
             Cu 8  -- Cu 27                  0.24         0.00          2.57539
             Cu 22 -- Cu 25                  0.24         0.00          2.57565
             Cu 15 -- Cu 25                  0.24         0.00          2.57565
             Cu 7  -- Cu 17                  0.24        -0.00          2.57565
             Cu 6  -- Cu 9                   0.24        -0.00          2.57565
             Cu 21 -- Cu 26                  0.24        -0.00          2.57565
             Cu 13 -- Cu 27                  0.24         0.00          2.57565
             Cu 7  -- Cu 29                  0.24        -0.00          2.57565
             Cu 6  -- Cu 30                  0.24        -0.00          2.57565
             Cu 5  -- Cu 19                  0.24        -0.00          2.57565
             Cu 5  -- Cu 10                  0.24        -0.00          2.57565
             Cu 3  -- Cu 26                  0.24        -0.00          2.57565
             Cu 2  -- Cu 27                  0.24        -0.00          2.57565
             Cu 20 -- Cu 22                  0.24        -0.00          2.59367
             Cu 11 -- Cu 12                  0.24        -0.00          2.59367
             Cu 8  -- Cu 31                  0.24        -0.00          2.59367
             Cu 6  -- Cu 20                  0.24        -0.00          2.59392
             Cu 12 -- Cu 15                  0.24        -0.00          2.59392
             Cu 21 -- Cu 31                  0.24        -0.00          2.59392
             Cu 13 -- Cu 31                  0.24        -0.00          2.59392
             Cu 3  -- Cu 12                  0.24        -0.00          2.59392
             Cu 18 -- Cu 20                  0.24        -0.00          2.59392
             Cu 7  -- Cu 12                  0.24        -0.00          2.59418
             Cu 5  -- Cu 31                  0.24        -0.00          2.59418
             Cu 2  -- Cu 20                  0.24        -0.00          2.59418
================================================================================
 

Writing analysis data to initial.castep_bin

Writing model to initial.check
 
 A BibTeX formatted list of references used in this run has been written to 
 initial.bib
 
Initialisation time =      8.46 s
Calculation time    =   4616.68 s
Finalisation time   =      2.15 s
Total time          =   4627.30 s
Peak Memory Use     = 2532140 kB
  
Overall parallel efficiency rating: Excellent (98%)                             
  
Data was distributed by:-
k-point (8-way); efficiency rating: Excellent (98%)                             
